default_name
 48997
  42.7025063  23.9866809  67.9565041  42.1289021  24.1553128  67.0451087
  41.7910537  23.1990726  66.6456574  42.7565686  24.6552708  66.3074260
  40.9219021  25.0183128  67.3151087  40.6599021  25.4503128  68.4271087
  40.1989021  25.2633128  66.2101087  40.3571956  24.7565920  65.3508785
  39.1549021  26.3063128  66.2251087  38.3769117  26.0584806  66.9471955
  39.7959021  27.6543128  66.6321087  39.0341463  28.4261960  66.5224563
  40.1677144  27.6544620  67.6567333  40.9579021  28.0633128  65.7491087
  41.3689021  27.4513128  64.6331087  40.7417757  26.6072702  64.3460471
  42.4799021  28.0053128  64.0881087  43.0172702  27.7444798  63.2736757
  42.7799021  29.0283128  64.9421087  43.8839021  29.8563128  64.8431087
  44.5646514  29.7455277  63.9990674  44.0439021  30.7733128  65.8331087
  44.9293114  31.4089119  65.8202921  43.1129021  30.9283128  66.8651087
  43.2373426  31.6968160  67.6280091  42.0179021  30.1173128  66.9451087
  41.3219945  30.2353055  67.7757055  41.8749021  29.1343128  65.9701087
  38.4869021  26.4663128  64.8771087  38.9629021  26.0423128  63.8361087
  37.3389021  27.1473128  64.9661087  36.9747956  27.4418436  65.8609704
  36.5889021  27.5123128  63.7531087  36.9358615  27.0059666  62.8523691
  35.1469021  27.0493128  64.0551087  35.1787991  26.0456487  64.4790665
  34.4689021  28.0073128  65.0541087  34.4362181  29.0111546  64.6306298
  33.4537052  27.6649533  65.2547717  35.0366083  28.0243117  65.9844432
  34.2939021  26.9893128  62.7731087  34.7418939  26.2865869  62.0705550
  33.2852045  26.6598826  63.0223166  34.2504034  27.9789702  62.3183704
  36.5989021  29.0053128  63.4821087  35.9369021  29.5483128  62.6101087
  37.3819021  29.6773128  64.3361087  38.0009345  29.1978606  64.9740929
  37.1369021  31.1113128  64.5481087  36.0648601  31.2996813  64.4902957
  37.6629021  31.6653128  65.8871087  37.4195729  30.9489497  66.6717838
  39.1819021  31.8953128  65.8571087  39.4259694  32.6119679  65.0729300
  39.5098567  32.2858868  66.8204347  39.6889237  30.9514668  65.6566483
  37.0009021  32.9013128  66.1981087  37.3326862  33.2408776  67.0325040
  37.4979021  31.9973128  63.3771087  36.8189021  32.9633128  63.0651087
  38.5969021  31.6003128  62.7161087  39.2831535  30.9857978  63.1302701
  38.9459021  32.2943128  61.4631087  38.2954418  33.1672152  61.4079545
  40.4099021  32.7573128  61.2861087  40.9837685  31.8721417  61.0117939
  40.5665041  33.5367115  60.5403785  41.0019021  33.2733128  62.5841087
  40.8429021  34.5403128  63.0091087  40.4062129  35.2895549  62.4913843
  41.3709021  34.6343128  64.2521087  41.3288188  35.5835925  64.7861462
  41.8859021  33.4363128  64.6111087  41.6879021  32.5843128  63.5911087
  42.0488121  31.5581244  63.6602648  38.4299021  31.5663128  60.2381087
  38.7379021  31.8733128  59.0971087  37.5879021  30.5693128  60.5481087
  37.5129799  30.2097470  61.4889586  36.8009021  29.9193128  59.4881087
  37.3461901  30.0507035  58.5534982  36.5279021  28.4153128  59.6921087
  35.9433752  28.3030553  60.6052493  35.9435573  28.0638247  58.8417575
  37.8229021  27.5833128  59.8051087  38.5803121  28.0395697  59.1677229
  38.1577659  27.6092851  60.8420725  37.6019021  26.1193128  59.3731087
  37.3127310  26.1131537  58.3221848  38.5424500  25.5818078  59.4937633
  36.5699021  25.4353128  60.1461087  35.6234634  25.4453631  59.7936146
  36.8179021  24.7963128  61.3171087  38.0239021  24.8213128  61.9261087
  38.7873538  25.3327602  61.5069868  38.1564124  24.3284371  62.7976672
  35.8229021  24.0943128  61.9011087  34.9135999  24.0533576  61.4633963
  35.9925810  23.6134458  62.7729314  35.4729021  30.6233128  59.3031087
  34.8299021  30.5623128  58.2691087  35.1169021  31.3403128  60.3791087
  35.5649900  31.2034686  61.2738658  34.0189021  32.3093128  60.2921087
  33.3047501  32.0150600  59.5230175  33.2909021  32.3513128  61.6501087
  32.6333418  31.4819969  61.6482472  34.0005958  32.2676483  62.4731732
  32.4469021  33.6353128  61.8261087  33.0369653  34.4916880  61.4996920
  31.1529021  33.5573128  60.9951087  30.5620523  32.7013907  61.3212876
  30.5753449  34.4711544  61.1344716  31.4040230  33.4441000  59.9404896
  32.1189021  33.9033128  63.3081087  33.0452780  34.0224137  63.8700181
  31.5250100  34.8135926  63.3904741  31.5541351  33.0637246  63.7133604
  34.5309021  33.6803128  59.9051087  34.0429021  34.3423128  59.0051087
  35.5529021  34.0943128  60.6671087  35.9259783  33.5349691  61.4207984
  36.0589021  35.4623128  60.4991087  35.1863771  36.1054357  60.3842515
  36.8159021  35.8833128  61.7701087  37.6974074  35.2542227  61.8937783
  37.1232786  36.9253726  61.6821806  36.1642473  35.7691167  62.6363676
  36.8849021  35.6373128  59.2411087  36.8759021  36.6583128  58.5701087
  37.5809021  34.5343128  58.9251087  37.6026841  33.7217686  59.5246059
  38.3419021  34.4933128  57.6671087  38.8943038  35.4262845  57.5552364
  39.0423697  33.6589276  57.7024058  37.4259021  34.3173128  56.4751087
  37.6069021  34.8693128  55.4011087  36.3689021  33.5383128  56.7531087
  36.3142654  33.0010901  57.6066343  35.2679021  33.4193128  55.7811087
  35.6303468  33.0049048  54.8403648  34.1949021  32.4733128  56.3551087
  34.5628981  31.4707543  56.1370384  34.1505808  32.6166700  57.4347310
  32.7849021  32.6443128  55.7561087  32.4707398  33.6804627  55.8817918
  32.7849021  32.2863128  54.2581087  33.0985357  31.2500977  54.1316533
  31.7807305  32.4133862  53.8536431  33.4754415  32.9417349  53.7273756
  31.8139021  31.7493128  56.5511087  31.8154540  32.0513053  57.5984375
  30.8077726  31.8534814  56.1449640  32.1308581  30.7093498  56.4729113
  34.6559021  34.7643128  55.4601087  34.3179021  35.1073128  54.3371087
  34.5489021  35.5493128  56.5371087  34.7393706  35.2255558  57.4746601
  34.0089021  36.9003128  56.3651087  33.2259695  36.8530895  55.6082167
  33.4209021  37.5133128  57.6401087  34.2155143  37.5339013  58.3859417
  33.1090735  38.5329766  57.4139479  32.2199021  36.7193128  58.1911087
  32.4286952  35.6519175  58.1191811  31.9789021  37.0963128  59.6631087
  31.7695721  38.1635510  59.7357898  31.1291947  36.5328424  60.0485942
  32.8669540  36.8600228  60.2493094  30.9389021  37.0113128  57.3871087
  31.0912492  36.7299778  56.3451200  30.1106042  36.4361176  57.8008408
  30.7070811  38.0747671  57.4456154  35.0049021  37.8663128  55.7661087
  34.6599021  38.9093128  55.2341087  36.2679021  37.4153128  55.8021087
  36.5560055  36.6639734  56.4125060  37.2819021  38.0453128  54.9471087
  37.0121555  39.0914030  54.8020871  38.6939021  37.9813128  55.5461087
  38.7154131  38.5044785  56.5021078  38.9871708  36.9420567  55.6945681
  39.6089021  38.6113128  54.6351087  40.4966659  38.5776961  54.9989016
  37.3659021  37.4173128  53.5671087  38.3749021  37.4483128  52.8741087
  36.2189021  36.8273128  53.2001087  35.4768367  36.6708900  53.8671695
  36.0779021  36.2553128  51.8551087  36.7365340  36.7436631  51.1369045
  36.4849021  34.7693128  51.9671087  37.5686051  34.7216937  52.0739712
  36.0138753  34.3549988  52.8584996  36.0539021  33.9523128  50.7311087
  35.2367743  34.4783647  50.2374769  36.9028768  33.8812595  50.0511855
  35.5899021  32.5353128  51.1231087  34.8286389  32.6067258  51.8999468
  35.1703443  32.0380048  50.2486058  36.6989021  31.7353128  51.6281087
  36.8728205  31.7329046  52.6230187  37.5009021  30.9883128  50.8291087
  37.3779021  30.9613128  49.4821087  36.6631171  31.5151315  49.0321451
  38.0014143  30.3874579  48.9325428  38.4709021  30.2463128  51.4051087
  38.5830515  30.2586329  52.4087874  39.0799200  29.6823394  50.8296698
  34.6899021  36.5283128  51.3021087  34.4759021  37.4023128  50.4761087
  33.7279021  35.7453128  51.8151087  33.9246888  35.0013861  52.4692855
  32.3419021  35.9253128  51.3611087  32.3263141  36.4160517  50.3879533
  31.6549021  34.5573128  51.2321087  31.6307384  34.0781015  52.2108180
  30.6356722  34.7038185  50.8746084  32.3699021  33.7233128  50.3091087
  31.9296307  32.8731220  50.2388483  31.4979021  36.8173128  52.2431087
  30.2769021  36.8463128  52.1861087  32.2289021  37.5793128  53.0701087
  33.2250906  37.4593401  53.1854969  31.5589021  38.6363128  53.8451087
  30.7954332  38.1780392  54.4737579  32.2988935  39.1302676  54.4748077
  30.9059021  39.6683128  52.9501087  29.9699021  40.3653128  53.3121087
  31.4499021  39.7033128  51.7241087  32.2302943  39.1165935  51.4655593
  30.9029021  40.6203128  50.7141087  30.1124945  41.1965484  51.1950531
  31.7093242  41.2898549  50.4149496  30.3409021  39.9463128  49.4831087
  30.4659021  40.4263128  48.3691087  29.7079021  38.7933128  49.7491087
  29.8431776  38.2961445  50.6177995  28.9289021  38.1353128  48.6791087
  29.4677508  38.2171624  47.7351586  28.6649021  36.6333128  48.9711087
  28.6943854  36.4901144  50.0512588  27.3029021  36.1583128  48.4271087
  27.2728389  36.3007782  47.3468769  27.1675308  35.1015990  48.6576104
  26.5039667  36.7362383  48.8916578  29.7629021  35.7533128  48.3391087
  30.7327091  36.0272783  48.7544632  29.5584893  34.7048180  48.5558426
  29.7744909  35.9051280  47.2597947  27.6569021  38.8983128  48.3561087
  27.1139021  38.8953128  47.2601087  27.1929021  39.5893128  49.4051087
  27.6555313  39.5902767  50.3029242  25.9189021  40.3103128  49.2771087
  25.3982300  40.0005036  48.3710083  24.9989021  40.0443128  50.4911087
  25.4793940  40.4298405  51.3903280  23.6359021  40.7373128  50.3001087
  23.1545680  40.3519397  49.4012728  23.0023769  40.5385920  51.1645486
  23.7852576  41.8123072  50.1992048  24.7689021  38.5333128  50.6921087
  25.7251692  38.0395111  50.8647797  24.1185251  38.3755494  51.5524691
  24.3001558  38.1149673  49.8013985  26.1779021  41.7923128  49.1011087
  26.1559021  42.5963128  50.0231087  26.4259021  42.1293128  47.8261087
  26.4503109  41.4561093  47.0735793  26.6649021  43.5433128  47.5041087
  26.2181404  44.1590350  48.2847427  28.1649021  43.8873128  47.4031087
  28.5609297  43.4287141  46.4970466  28.2636964  44.9706518  47.3344325
  28.9539021  43.3763128  48.6241087  28.4783430  43.7660684  49.5241281
  28.9043275  42.2874560  48.6300480  30.4299021  43.8233128  48.5881087
  30.4467791  44.9083479  48.4855756  30.8863966  43.5413979  49.5369165
  31.2219021  43.1843128  47.4261087  32.1915783  42.8557909  47.8001436
  30.6664066  42.3238368  47.0531409  31.4239021  44.1723128  46.3101087
  31.9389930  44.9695321  46.6553950  31.9428473  43.7342654  45.5625057
  30.5254984  44.4765312  45.9630913  26.0459021  43.9063128  46.1741087
  25.9619021  43.1153128  45.2471087  25.6479021  45.1863128  46.1121087
  25.6098187  45.7776611  46.9300062  25.1869021  45.7413128  44.8261087
  24.2828424  45.2233459  44.5059752  24.8719021  47.2443128  44.9611087
  24.8856443  47.7382908  43.9895655  23.8835480  47.3506745  45.4082590
  25.8829021  47.9173128  45.8591087  25.6809021  48.0973128  47.0481087
  27.0139021  48.2543128  45.2301087  27.7558210  48.7105974  45.7414409
  27.1210066  48.0510072  44.2465965  26.1739021  45.5473128  43.6921087
  25.8309021  45.4863128  42.5221087  27.4429021  45.4443128  44.1131087
  27.7194762  45.6971062  45.0510328  28.4929021  45.1123128  43.1441087
  28.0449472  44.7150260  42.2332856  29.3069021  46.3723128  42.7841087
  30.1363642  46.0626483  42.1483416  28.6722529  47.0703426  42.2381465
  29.8659021  47.0763128  43.9981087  29.3309021  48.0473128  44.5081087
  31.0099021  46.5433128  44.4391087  31.4692276  46.9386789  45.2470725
  31.4096136  45.7477121  43.9622953  29.3739021  43.9583128  43.5741087
  30.5949021  43.9993128  43.5541087  28.6659021  42.8723128  43.9181087
  27.6895129  42.9159746  44.1727792  29.3609021  41.5813128  44.0381087
  30.3951908  41.7908568  44.3109409  28.7619021  40.6073128  45.0811087
  28.7695231  41.0784109  46.0640165  27.7465047  40.2960033  44.8358446
  29.5899021  39.3363128  45.2011087  30.8539021  39.3843128  45.7451087
  31.2329644  40.3283388  46.1365506  31.6359021  38.2553128  45.7971087
  32.6370918  38.3033721  46.2253729  31.1539021  37.0643128  45.3081087
  31.7744949  36.1687535  45.3387373  29.8849021  37.0043128  44.7791087
  29.4979454  36.0589486  44.3987783  29.1049021  38.1363128  44.7301087
  28.0974532  38.0865244  44.3169892  29.4189021  40.9373128  42.6621087
  28.5529021  41.1033128  41.8141087  30.5249021  40.2053128  42.4681087
  31.2327647  40.1083978  43.1819976  30.7449021  39.5443128  41.1751087
  29.8968357  39.6716956  40.5023115  31.9959021  40.1643128  40.5151087
  32.8608313  39.9868452  41.1542503  32.2409021  39.5303128  39.1321087
  31.3765299  39.7077783  38.4922121  33.1257893  39.9769584  38.6786963
  32.3939295  38.4571107  39.2457815  31.8419021  41.6913128  40.3571087
  31.7039170  42.1465049  41.3378545  32.7374073  42.1008987  39.8897656
  30.9754256  41.9068680  39.7319246  30.9269021  38.0483128  41.3651087
  32.0149021  37.5603128  41.6411087  29.8109021  37.3123128  41.1931087
  28.4499021  37.8733128  41.1431087  28.2173889  38.2542692  40.1486691
  28.3259783  38.6711236  41.8753927  27.6379021  36.6213128  41.4991087
  26.6335573  36.6854772  41.0804521  27.5732312  36.5030478  42.5807429
  28.4339021  35.4733128  40.8701087  28.2398360  35.4002678  39.8000144
  28.2092575  34.5185587  41.3455865  29.9069021  35.8453128  41.1101087
  30.2633555  35.4981181  42.0799000  30.8259021  35.3273128  40.0191087
  31.5029021  36.0503128  39.3011087  30.8139021  33.9893128  39.9251087
  30.1510888  33.4171708  40.4285284  31.8239021  33.3183128  39.0941087
  32.4031233  34.0236145  38.4981628  32.7779021  32.5993128  40.0731087
  32.2034292  31.9012660  40.6820519  33.8559021  31.8343128  39.3001087
  34.4311284  32.5318100  38.6912475  34.5208555  31.3326345  40.0031414
  33.3841550  31.0931778  38.6549157  33.4199021  33.5403128  40.9461087
  34.0068858  33.0725705  41.5446634  31.1919021  32.3453128  38.1161087
  30.1589021  31.7413128  38.3601087  31.8749021  32.2233128  36.9651087
  32.7170198  32.7474543  36.7748120  31.3619021  31.3223128  35.9191087
  30.2722252  31.3488332  35.9188172  31.8649021  31.7453128  34.5261087
  31.6583851  32.8072622  34.3930168  32.9406859  31.5762394  34.4791681
  31.1839021  30.9593128  33.4311087  30.2139021  30.1963128  33.7741087
  31.6339021  31.1183128  32.2451087  31.7539021  29.8743128  36.1451087
  32.9119021  29.5183128  36.3041087  30.7019021  29.0403128  36.1381087
  29.7624760  29.3718372  35.9717670  30.8929021  27.6163128  36.4591087
  31.8973940  27.2704330  36.2152594  30.6449021  27.3903128  37.9731087
  30.7356458  26.3244108  38.1821967  31.6589021  28.1723128  38.8371087
  31.5684291  29.2384102  38.6288976  31.4547172  27.9900937  39.8921941
  32.6700808  27.8410163  38.6007574  29.2169021  27.7953128  38.3911087
  28.4924624  27.2000931  37.8352287  29.0870066  27.6204029  39.4591131
  29.0604187  28.8521251  38.1748645  29.9839021  26.7533128  35.6001087
  29.2449021  25.8853128  36.0411087  30.0449021  27.0873128  34.3021087
  30.7407635  27.7210851  33.9357632  29.0629021  26.5123128  33.3671087
  28.7336193  25.5636602  33.7910548  28.2200145  27.2020144  33.3229324
  29.5779021  26.2723128  31.9621087  30.6599021  26.6893128  31.5861087
  28.7519021  25.5533128  31.1781087  27.3569021  25.2003128  31.4851087
  26.9269986  25.8460579  32.2508088  27.2525943  24.1586171  31.7885701
  26.7679021  25.4663128  30.0891087  26.4375131  26.5035892  30.0343385
  25.9158167  24.8052873  29.9306882  27.8849021  25.1773128  29.0691087
  28.0516018  25.9280222  28.2966156  27.5899538  24.2369203  28.6035263
  29.1709021  24.9763128  29.8891087  29.3066428  23.9220343  30.1302922
  30.3799021  25.4793128  29.1321087  31.2019021  24.7223128  28.6371087
  30.4499021  26.8143128  29.0641087  29.7766515  27.4198252  29.5115322
  31.5149021  27.4303128  28.2601087  32.0001025  26.6623236  27.6577199
  30.9589021  28.5173128  27.3181087  30.3274054  29.2031964  27.8827988
  31.7987787  29.0654682  26.8912210  30.1239021  28.0203128  26.1481087
  28.7519021  27.9573128  26.2461087  28.2633671  28.2436096  27.1774881
  27.9979021  27.5353128  25.1751087  26.9117880  27.4906348  25.2554866
  28.6169021  27.1693128  24.0011087  28.0201682  26.8414322  23.1499314
  29.9879021  27.2173128  23.9021087  30.4811291  26.9181108  22.9772815
  30.7369021  27.6443128  24.9741087  31.8233815  27.6866810  24.8975094
  32.5679021  28.0163128  29.1751087  32.9279021  29.1843128  29.1451087
  33.0479021  27.1033128  30.0301087  32.7685007  26.1335197  29.9909241
  33.9969021  27.5113128  31.0691087  34.5893741  28.3846088  30.7962895
  33.1529021  27.8573128  32.3101087  32.5608192  26.9895801  32.6009313
  33.8119516  28.1386471  33.1314522  32.4877759  28.6889273  32.0774636
  34.9689021  26.3913128  31.3631087  34.8789021  25.2743128  30.8771087
  35.9309021  26.7563128  32.2211087  35.9934189  27.6980484  32.5807267
  36.9829021  25.7943128  32.5951087  37.4572375  25.3679555  31.7111831
  38.0529021  26.5563128  33.4111087  37.5882025  26.9520414  34.3141881
  38.8474758  25.8626471  33.6860278  38.7259021  27.7373128  32.7121087
  38.6539021  27.9593128  31.3521087  38.0932203  27.2635755  30.7278609
  39.2799021  29.0443128  30.7821087  39.2121182  29.2100502  29.7069170
  39.9909021  29.9193128  31.5691087  40.4891466  30.7797394  31.1224339
  40.0719021  29.7053128  32.9251087  40.6349147  30.3944556  33.5545523
  39.4409021  28.6193128  33.4871087  39.5037843  28.4483766  34.5617838
  36.5049021  24.5773128  33.3601087  37.2369021  23.6393128  33.6351087
  35.2079021  24.6363128  33.6881087  34.6560054  25.4395902  33.4230474
  34.7815732  23.8775348  34.2005532  35.7978553  35.5892753  30.8234083
  34.5648553  20.0012753  26.8714083  25.4870113  32.0492753  31.7614083
  22.5450113  51.0913833  50.6886493  46.5498553  21.6792753  74.3841313
  25.6650113  24.0782753  14.7311673  46.3788553  42.4943833  67.7208903
  50.1398553  27.1582753  28.9904083  15.1071673  38.5883833  56.2698903
  21.0930113  53.1423833  36.3256493  21.0930113  16.1861673  36.3256493
  27.2780113  38.0273833  72.4068903  42.7918553  15.5331673  38.7546493
  47.0408553  43.8013833  51.1546493  34.1458553  31.9492753  17.1671673
  54.6176993  31.2632753  70.0028903  33.6620113  14.3841673  64.9688903
  33.0790113  58.6084913  42.6666493  17.4350113  26.4172753  23.5544083
  25.6650113  24.0782753  71.7498903  28.4280113  21.9562753  63.6218903
  44.4128553  40.5543833  58.5988903  24.7830113  31.8042753  18.2184083
  23.0120113  55.7094913  44.0726493  18.5470113  19.5412753  30.5234083
  31.2720113  32.5702753  73.7868903  37.6188553  35.6853833  23.3474083
  53.1598553  24.4882753  68.8258903  46.6908553  22.4792753  33.4104083
  17.6530113  45.4083833  54.3326493  40.5748553  46.1183833  46.3786493
  40.4998553  16.0171673  59.3588903  28.2900113  19.7002753  19.2724083
  53.0366993  39.7513833  70.9388903  18.3860113  33.2782753  30.0564083
  34.1718553  21.2732753  70.9388903  28.2900113  56.6564913  38.2786493
  38.6118553  13.6511673  32.6234083  23.3570113  36.8403833  65.8778903
  31.3990113  24.7492753  11.6061673  21.6350113  16.0171673  40.3526493
  48.6498553  25.2492753  75.8231313  64.1006993  55.0614913  79.9891313
  63.8556993  55.5494913  79.3091313  64.9636993  54.9884913  79.8891313
  64.1916993  55.1224913  79.8741313  63.9096993  61.9774913  84.6601313
  63.3856993  62.5734913  85.0231313  64.3066993  61.6094913  85.3441313
  63.8906993  62.0114913  84.8151313  53.7786993  66.1174913  80.1161313
  53.3376993  66.2354913  80.8591313  53.4956993  65.3424913  79.8311313
  53.6716993  66.0204913  80.1841313  53.5216993  59.9094913  76.6231313
  52.7436993  60.0714913  76.2631313  53.5606993  59.0384913  76.6451313
  53.4126993  59.8044913  76.5731313  56.6606993  65.1724913  75.2951313
  56.2686993  64.8014913  74.6091313  56.5806993  64.5744913  75.9241313
  56.5906993  65.0294913  75.2861313  56.2876993  66.8134913  79.1951313
  56.8956993  66.6434913  79.7981313  55.5366993  66.6734913  79.6161313
  56.2666993  66.7674913  79.3461313  60.5696993  56.1484913  79.1441313
  60.4996993  56.8254913  78.5981313  61.3106993  55.7604913  78.8951313
  60.6686993  56.1914913  79.0261313  55.1786993  69.9044913  75.2721313
  55.6456993  69.9884913  74.5401313  55.6336993  69.3264913  75.7411313
  55.3146993  69.8314913  75.2331313  53.7186993  68.8524913  86.3711313
  53.8476993  68.5724913  87.1871313  53.1086993  68.3114913  86.0621313
  53.6476993  68.7314913  86.4461313  55.1646993  63.3734913  80.5731313
  54.7026993  62.9814913  79.9461313  55.8646993  62.8604913  80.6651313
  55.1996993  63.2404913  80.4941313  59.6726993  58.9834913  85.9201313
  60.3506993  59.0014913  85.3711313  59.6276993  58.1474913  86.1651313
  59.7656993  58.8624913  85.8751313  57.1656993  61.4734913  80.5961313
  57.9826993  61.2864913  80.8391313  56.6886993  60.8594913  80.9921313
  57.2156993  61.3554913  80.6911313  61.3696993  67.4544913  83.2061313
  61.7176993  66.6554913  83.2361313  62.0346993  67.9584913  82.9511313
  61.5196993  67.4104913  83.1731313  61.4266993  66.9034913  79.4171313
  61.7576993  66.2594913  79.9031313  61.6666993  66.6924913  78.6061313
  61.5106993  66.7774913  79.3691313  57.7626993  56.5674913  79.8621313
  57.4666993  57.0684913  79.2121313  58.6296993  56.6454913  79.8051313
  57.8466993  56.6534913  79.7581313  60.7416993  55.7094913  82.0851313
  60.8146993  56.5694913  82.2141313  60.7036993  55.6344913  81.2171313
  60.7466993  55.8254913  81.9761313  65.4146993  58.6354913  74.3841313
  64.9646993  59.3164913  74.6911313  65.5286993  58.1314913  75.0871313
  65.3656993  58.6614913  74.5331313  53.6206993  61.1344913  83.5861313
  53.3646993  61.9654913  83.5111313  52.9566993  60.7514913  84.0031313
  53.4846993  61.2004913  83.6371313  59.3706993  68.6884913  78.9661313
  58.7916993  68.4134913  79.5581313  59.9946993  68.0794913  78.9911313
  59.3776993  68.5584913  79.0571313  56.6496993  55.9514913  84.0771313
  56.1286993  55.3234913  83.7691313  57.2406993  55.5144913  84.5481313
  56.6606993  55.7934913  84.1011313  55.8936993  68.0014913  82.9171313
  56.3166993  67.6454913  82.2431313  56.2176993  67.5794913  83.6091313
  56.0036993  67.8864913  82.9201313  62.9316993  60.2504913  80.3001313
  63.2186993  60.0184913  79.5101313  63.6636993  60.3294913  80.7691313
  63.0816993  60.2274913  80.2531313  63.6536993  60.5894913  75.4211313
  63.9346993  61.3774913  75.6701313  62.8776993  60.7544913  75.0581313
  63.5806993  60.7304913  75.4041313  62.5126993  68.7604913  75.2371313
  62.3316993  69.3054913  75.8941313  63.2786993  69.0504913  74.9361313
  62.5986993  68.8844913  75.2901313  53.9736993  57.8244913  78.8601313
  53.8596993  56.9604913  78.8911313  53.4986993  58.1184913  79.5301313
  53.8866993  57.7404913  78.9631313  63.2776993  59.0324913  77.6051313
  62.7696993  58.3704913  77.3511313  63.3296993  59.5364913  76.8951313
  63.2106993  59.0094913  77.4631313  63.2776993  55.9734913  77.4961313
  62.8226993  55.5714913  76.8701313  64.0506993  56.1284913  77.1211313
  63.3246993  55.9374913  77.3481313  61.8756993  58.3404913  82.0181313
  61.9496993  58.9084913  81.3601313  61.9966993  58.8324913  82.7281313
  61.9036993  58.4974913  82.0261313  56.4836993  54.1634913  80.3661313
  57.0196993  54.8514913  80.3561313  56.4866993  53.8894913  79.5381313
  56.5626993  54.2244913  80.2421313  59.4396993  64.5964913  84.3911313
  59.6116993  64.3864913  85.2201313  58.7846993  64.0624913  84.1751313
  59.3686993  64.4864913  84.4821313  65.6676993  58.5104913  87.9061313
  65.5726993  58.8294913  88.7121313  65.0746993  57.8714913  87.8681313
  65.5656993  58.4624913  88.0201313  60.1896993  64.5344913  86.9811313
  60.2426993  65.3814913  87.1831313  59.9046993  64.1644913  87.7181313
  60.1556993  64.6044913  87.1191313  66.3666993  65.2294913  86.1111313
  65.8526993  64.8174913  86.6821313  66.2406993  66.0734913  86.2921313
  66.2726993  65.2934913  86.2221313  56.9316993  57.9734913  82.0201313
  57.2036993  57.5434913  81.3121313  56.7556993  57.3374913  82.5911313
  56.9456993  57.8164913  82.0001313  56.7556993  65.4004913  81.5691313
  57.6066993  65.3204913  81.3961313  56.3986993  64.7184913  81.1571313
  56.8286993  65.2874913  81.4821313  55.0726993  59.0754913  85.1021313
  55.9156993  59.2954913  85.0591313  54.6836993  59.6484913  84.5711313
  55.1396993  59.1924913  85.0171313  59.1236993  65.4074913  79.8041313
  59.8366993  65.9024913  79.8941313  59.3456993  64.8404913  79.1781313
  59.2616993  65.3964913  79.7251313  53.2796993  67.0504913  83.1241313
  52.6126993  67.5384913  83.4001313  53.9596993  67.5954913  83.1531313
  53.2816993  67.2024913  83.1691313  53.3456993  63.7344913  78.2271313
  53.1606993  62.8954913  78.3791313  54.0046993  63.6984913  77.6571313
  53.4156993  63.6054913  78.1651313  63.6466993  69.1104913  82.1311313
  63.1236993  69.7444913  81.8381313  63.9566993  68.7464913  81.4021313
  63.6146993  69.1504913  81.9801313  53.5176993  67.8984913  77.8021313
  54.0696993  68.4674913  78.1661313  53.2856993  67.3834913  78.4671313
  53.5646993  67.9064913  77.9541313  57.7216993  66.8984913  84.8911313
  58.1886993  67.1874913  85.5691313  58.2936993  66.4204913  84.4371313
  57.8756993  66.8704913  84.9241313  53.3476993  66.3474913  75.4301313
  54.1036993  65.9154913  75.4881313  53.3626993  66.8794913  76.1211313
  53.4616993  66.3624913  75.5411313  54.2876993  64.5684913  83.4351313
  54.7186993  64.4394913  82.6881313  54.0826993  65.4164913  83.4091313
  54.3206993  64.6744913  83.3211313  60.6336993  58.1324913  77.0851313
  60.6316993  58.0154913  76.2201313  60.4526993  58.9804913  77.1771313
  60.6066993  58.2404913  76.9711313  58.3716993  68.0844913  81.7171313
  58.4976993  68.9274913  81.9041313  59.0396993  67.6854913  82.1131313
  58.4896993  68.1504913  81.8031313  56.9866993  60.9644913  76.7191313
  56.8586993  60.5164913  77.4571313  56.4046993  60.6224913  76.1671313
  56.8816993  60.8474913  76.7471313  57.1536993  62.7944913  83.3181313
  56.3726993  62.7354913  82.9351313  57.2256993  62.0424913  83.7551313
  57.0486993  62.6754913  83.3261313  57.5836993  62.5314913  86.7861313
  57.6086993  61.8564913  86.2351313  56.9376993  63.0274913  86.4741313
  57.4926993  62.5044913  86.6591313  64.1236993  56.1504913  88.6111313
  64.2726993  55.3254913  88.3681313  64.5026993  56.2054913  89.3951313
  64.2016993  56.0364913  88.6911313  65.6716993  58.2134913  78.6931313
  66.1616993  58.9304913  78.6161313  64.8816993  58.4744913  78.4301313
  65.6276993  58.3574913  78.6431313  62.2536993  59.6834913  84.4181313
  62.7336993  60.3824913  84.6261313  62.6266993  59.0364913  84.8691313
  62.3796993  59.6914913  84.5151313  64.4426993  62.8524913  76.6921313
  64.4346993  63.5744913  76.2021313  63.8036993  62.9874913  77.2691313
  64.3476993  62.9794913  76.7051313  65.4726993  66.6394913  83.9171313
  64.6756993  66.8634913  84.1911313  65.7306993  66.0454913  84.5021313
  65.3926993  66.5844913  84.0441313  59.0356993  55.1944913  76.3531313
  59.1326993  55.0874913  77.2141313  58.3276993  55.7004913  76.2881313
  58.9456993  55.2534913  76.4711313  56.1576993  63.5014913  77.5961313
  56.4816993  62.7224913  77.3741313  56.8036993  63.8694913  78.0511313
  56.3006993  63.4404913  77.6301313  64.4636993  64.4434913  88.3631313
  64.3086993  65.0534913  88.9671313  64.9976993  63.8854913  88.7691313
  64.5196993  64.4514913  88.5121313  53.1546993  55.1624913  78.5641313
  53.2836993  54.4544913  78.0721313  52.7876993  54.8444913  79.2891313
  53.1196993  55.0104913  78.5991313  62.8476993  62.8434913  79.0211313
  62.9066993  63.4934913  79.6001313  62.6586993  62.1474913  79.5121313
  62.8286993  62.8364913  79.1791313  57.3436993  57.3604913  75.5331313
  56.8326993  57.4134913  74.8271313  58.1276993  57.6004913  75.2371313
  57.3836993  57.4034913  75.3851313  62.0706993  64.8904913  83.4521313
  61.2236993  64.6964913  83.5331313  62.3946993  64.7254913  84.2451313
  61.9926993  64.8374913  83.5811313  55.9186993  64.5834913  85.7681313
  56.6406993  65.0714913  85.7311313  55.6486993  64.5534913  84.9391313
  55.9856993  64.6514913  85.6401313  59.1486993  59.7544913  82.5031313
  59.9946993  59.5644913  82.6011313  58.7786993  58.9774913  82.3651313
  59.2186993  59.6114913  82.4971313  53.9696993  61.0924913  79.1581313
  54.4586993  60.8004913  79.8191313  54.0986993  60.4994913  78.5311313
  54.0606993  60.9614913  79.1631313  58.4946993  62.5264913  74.6441313
  57.8846993  62.1214913  75.1181313  58.1086993  62.6444913  73.8711313
  58.3476993  62.4834913  74.6001313  55.3136993  65.6354913  90.0461313
  54.8926993  65.1174913  89.4851313  54.9616993  66.4214913  89.9031313
  55.1996993  65.6754913  89.9421313  59.9496993  60.9874913  77.3541313
  60.2216993  61.8134913  77.4211313  59.0866993  61.0624913  77.2581313
  59.8626993  61.1204913  77.3491313  53.4296993  56.9574913  83.8901313
  53.4736993  57.3014913  83.0891313  54.1846993  57.1944913  84.2571313
  53.5476993  57.0434913  83.8261313  65.3706993  66.2964913  75.3601313
  66.0546993  65.7824913  75.1911313  64.9536993  66.3424913  74.5951313
  65.4096993  66.2274913  75.2221313  60.0526993  67.4464913  86.6641313
  59.7546993  68.0384913  87.2311313  60.1076993  67.8884913  85.9151313
  60.0166993  67.5994913  86.6371313  62.5686993  63.8694913  86.1551313
  63.0446993  64.2434913  86.7831313  61.7456993  64.0034913  86.4141313
  62.5176993  63.9444913  86.2861313  59.2786993  59.4724913  88.8961313
  59.4396993  58.7284913  89.3231313  59.2336993  59.2234913  88.0611313
  59.2956993  59.3254913  88.8361313  61.0306993  55.2804913  88.7761313
  61.7356993  55.6004913  88.3741313  61.2716993  54.4734913  89.0031313
  61.1696993  55.2084913  88.7501313  60.0156993  69.4904913  84.7721313
  59.3916993  70.0724913  84.5901313  60.2636993  69.2044913  83.9861313
  59.9596993  69.5344913  84.6291313  61.6096993  64.2664913  74.6871313
  60.8046993  64.0894913  74.4021313  61.5766993  65.1174913  74.8791313
  61.4856993  64.3654913  74.6741313  57.5396993  60.3334913  84.8371313
  57.9796993  60.2304913  84.0911313  58.0846993  60.0204913  85.4421313
  57.6846993  60.2724913  84.8161313  65.2436993  60.9724913  86.7271313
  65.5456993  61.3924913  87.4301313  65.2796993  60.1324913  86.9591313
  65.2936993  60.9104913  86.8651313  61.0866993  55.3184913  84.8841313
  60.2606993  55.1694913  85.1211313  61.0466993  55.3534913  84.0131313
  60.9586993  55.3014913  84.7901313  62.7276993  66.3584913  89.6721313
  61.9326993  66.2944913  90.0231313  62.7986993  67.2054913  89.4771313
  62.6206993  66.4734913  89.6951313  56.7156993  58.4604913  78.1441313
  56.8416993  58.1314913  77.3461313  55.9036993  58.2114913  78.3431313
  56.6146993  58.3754913  78.0561313  65.4726993  65.6134913  81.1881313
  65.5486993  65.9544913  81.9871313  65.6416993  64.7664913  81.3091313
  65.5086993  65.5384913  81.3241313  62.9946993  64.8874913  80.7531313
  62.6966993  64.5724913  81.5101313  63.6896993  65.3604913  80.9881313
  63.0536993  64.9104913  80.9001313  63.2166993  69.0054913  88.7801313
  63.9036993  68.8914913  89.3051313  63.3506993  69.7964913  88.4361313
  63.3376993  69.1054913  88.8071313  63.6246993  66.9334913  86.2131313
  62.9306993  67.3354913  86.5561313  64.3016993  67.3664913  86.5521313
  63.6216993  67.0564913  86.3141313  56.6926993  60.4714913  88.5601313
  57.0676993  61.0904913  88.0731313  57.3666993  59.9974913  88.8451313
  56.8476993  60.4934913  88.5301313  54.4676993  58.9194913  87.8351313
  54.5446993  58.7504913  86.9821313  55.2136993  59.3254913  88.0321313
  54.5886993  58.9544913  87.7381313  63.9466993  68.5244913  79.3821313
  63.7416993  69.3574913  79.2231313  63.1716993  68.1424913  79.5041313
  63.8016993  68.5914913  79.3771313  53.8646993  64.1454913  88.0591313
  54.1846993  64.3644913  87.2781313  53.7646993  63.2804913  88.0041313
  53.8966993  64.0504913  87.9361313  55.3206993  60.0814913  74.6771313
  54.6486993  60.0954913  75.2331313  55.4156993  59.2334913  74.4931313
  55.2356993  59.9584913  74.7321313  64.0016993  56.6954913  82.2671313
  63.3016993  57.2134913  82.2111313  64.0396993  56.3154913  81.4831313
  63.9036993  56.7164913  82.1431313  59.3086993  68.7864913  75.7911313
  59.7496993  68.8664913  76.5391313  58.5036993  68.5704913  76.0491313
  59.2546993  68.7664913  75.9401313  58.6276993  63.4374913  89.4441313
  58.2316993  64.2114913  89.5191313  58.2216993  63.0644913  88.7681313
  58.5096993  63.4964913  89.3551313  56.6376993  67.8564913  76.3921313
  56.3936993  67.5494913  77.1721313  56.6046993  67.1534913  75.8761313
  56.5966993  67.7074913  76.4311313  59.4566993  66.1014913  75.1351313
  58.6386993  65.8334913  75.2751313  59.4286993  66.9534913  75.3201313
  59.3316993  66.1884913  75.1831313  59.0566993  56.4144913  86.8941313
  58.1926993  56.4984913  86.9741313  59.2766993  55.9004913  87.5631313
  58.9616993  56.3514913  87.0051313  63.1596993  57.1624913  85.2681313
  62.4226993  56.7084913  85.3811313  63.7306993  56.7604913  85.7911313
  63.1346993  57.0354913  85.3621313  65.8916993  68.0104913  87.0561313
  66.0976993  68.3114913  87.8481313  65.8306993  68.7324913  86.5711313
  65.9126993  68.1614913  87.1011313  61.4586993  54.7434913  75.0991313
  61.5366993  54.9904913  74.2661313  60.7156993  55.1204913  75.3571313
  61.3606993  54.8354913  75.0141313  56.2766993  56.4974913  87.5421313
  55.9336993  55.7304913  87.3081313  55.5816993  57.0214913  87.6061313
  56.1236993  56.4614913  87.5171313  65.3226993  55.3534913  84.5191313
  65.9926993  55.8974913  84.6461313  64.8196993  55.7774913  83.9461313
  65.3476993  55.4964913  84.4531313  64.6816993  61.1614913  82.0121313
  65.2326993  60.5544913  82.3121313  64.2566993  61.4244913  82.7271313
  64.7006993  61.1104913  82.1611313  54.9296993  59.8114913  81.4981313
  54.5616993  60.1134913  82.2291313  55.4636993  59.1824913  81.7821313
  54.9536993  59.7634913  81.6481313  54.6176993  68.2194913  89.0091313
  54.0436993  68.6354913  89.5181313  55.3506993  68.6844913  89.1041313
  54.6416993  68.3494913  89.0981313  60.5706993  63.8834913  77.5121313
  60.6706993  64.0224913  76.6571313  61.3886993  63.8234913  77.8081313
  60.7056993  63.8944913  77.4291313  65.8056993  68.2124913  77.3141313
  65.5546993  68.0844913  78.1401313  65.4886993  67.5174913  76.8931313
  65.7216993  68.0914913  77.3741313  62.6916993  66.4204913  76.7441313
  63.4086993  66.0734913  76.3881313  62.6576993  67.2204913  76.3961313
  62.7926993  66.4874913  76.6401313  64.1006993  55.0614913  60.9828903
  63.8556993  55.5494913  60.3028903  64.9636993  54.9884913  60.8828903
  64.1916993  55.1224913  60.8678903  63.9096993  61.9774913  65.6538903
  63.3856993  62.5734913  66.0168903  64.3066993  61.6094913  66.3378903
  63.8906993  62.0114913  65.8088903  53.7786993  66.1174913  61.1098903
  53.3376993  66.2354913  61.8528903  53.4956993  65.3424913  60.8248903
  53.6716993  66.0204913  61.1778903  53.5216993  59.9094913  57.6168903
  52.7436993  60.0714913  57.2568903  53.5606993  59.0384913  57.6388903
  53.4126993  59.8044913  57.5668903  56.6606993  65.1724913  56.2888903
  56.2686993  64.8014913  55.6028903  56.5806993  64.5744913  56.9178903
  56.5906993  65.0294913  56.2798903  56.2876993  66.8134913  60.1888903
  56.8956993  66.6434913  60.7918903  55.5366993  66.6734913  60.6098903
  56.2666993  66.7674913  60.3398903  60.5696993  56.1484913  60.1378903
  60.4996993  56.8254913  59.5918903  61.3106993  55.7604913  59.8888903
  60.6686993  56.1914913  60.0198903  55.1786993  69.9044913  56.2658903
  55.6456993  69.9884913  55.5338903  55.6336993  69.3264913  56.7348903
  55.3146993  69.8314913  56.2268903  53.7186993  68.8524913  67.3648903
  53.8476993  68.5724913  68.1808903  53.1086993  68.3114913  67.0558903
  53.6476993  68.7314913  67.4398903  60.2926993  66.3774913  72.4318903
  60.0566993  66.3744913  73.2718903  59.5446993  66.2294913  72.0078903
  60.1466993  66.3544913  72.4928903  55.1646993  63.3734913  61.5668903
  54.7026993  62.9814913  60.9398903  55.8646993  62.8604913  61.6588903
  55.1996993  63.2404913  61.4878903  59.6726993  58.9834913  66.9138903
  60.3506993  59.0014913  66.3648903  59.6276993  58.1474913  67.1588903
  59.7656993  58.8624913  66.8688903  57.1656993  61.4734913  61.5898903
  57.9826993  61.2864913  61.8328903  56.6886993  60.8594913  61.9858903
  57.2156993  61.3554913  61.6848903  61.3696993  67.4544913  64.1998903
  61.7176993  66.6554913  64.2298903  62.0346993  67.9584913  63.9448903
  61.5196993  67.4104913  64.1668903  61.4266993  66.9034913  60.4108903
  61.7576993  66.2594913  60.8968903  61.6666993  66.6924913  59.5998903
  61.5106993  66.7774913  60.3628903  63.3946993  61.0344913  71.7498903
  62.5466993  60.9354913  71.5718903  63.4236993  61.7794913  72.2038903
  63.2736993  61.1304913  71.7908903  57.7626993  56.5674913  60.8558903
  57.4666993  57.0684913  60.2058903  58.6296993  56.6454913  60.7988903
  57.8466993  56.6534913  60.7518903  60.7416993  55.7094913  63.0788903
  60.8146993  56.5694913  63.2078903  60.7036993  55.6344913  62.2108903
  60.7466993  55.8254913  62.9698903  65.4146993  58.6354913  55.3778903
  64.9646993  59.3164913  55.6848903  65.5286993  58.1314913  56.0808903
  65.3656993  58.6614913  55.5268903  53.6206993  61.1344913  64.5798903
  53.3646993  61.9654913  64.5048903  52.9566993  60.7514913  64.9968903
  53.4846993  61.2004913  64.6308903  59.3706993  68.6884913  59.9598903
  58.7916993  68.4134913  60.5518903  59.9946993  68.0794913  59.9848903
  59.3776993  68.5584913  60.0508903  56.6496993  55.9514913  65.0708903
  56.1286993  55.3234913  64.7628903  57.2406993  55.5144913  65.5418903
  56.6606993  55.7934913  65.0948903  59.9556993  58.0844913  74.3688903
  60.0726993  57.6304913  73.6328903  60.2436993  58.8824913  74.1658903
  60.0156993  58.1354913  74.2298903  55.6886993  57.6814913  73.3528903
  54.9106993  57.2914913  73.2808903  56.1796993  57.2694913  72.7618903
  55.6456993  57.5624913  73.2548903  55.8936993  68.0014913  63.9108903
  56.3166993  67.6454913  63.2368903  56.2176993  67.5794913  64.6028903
  56.0036993  67.8864913  63.9138903  62.3376993  55.3244913  72.5208903
  62.5156993  54.5154913  72.2458903  62.1946993  55.7654913  71.7818903
  62.3426993  55.2704913  72.3708903  62.9316993  60.2504913  61.2938903
  63.2186993  60.0184913  60.5038903  63.6636993  60.3294913  61.7628903
  63.0816993  60.2274913  61.2468903  63.6536993  60.5894913  56.4148903
  63.9346993  61.3774913  56.6638903  62.8776993  60.7544913  56.0518903
  63.5806993  60.7304913  56.3978903  53.0366993  58.2294913  70.9388903
  53.0326993  58.8164913  71.5848903  53.6306993  58.5414913  70.3818903
  53.1236993  58.3624913  70.9518903  65.3746993  68.5634913  71.4808903
  65.3406993  68.9454913  72.2648903  66.2286993  68.5214913  71.3098903
  65.4956993  68.6134913  71.5718903  62.5126993  68.7604913  56.2308903
  62.3316993  69.3054913  56.8878903  63.2786993  69.0504913  55.9298903
  62.5986993  68.8844913  56.2838903  53.9736993  57.8244913  59.8538903
  53.8596993  56.9604913  59.8848903  53.4986993  58.1184913  60.5238903
  53.8866993  57.7404913  59.9568903  63.2776993  59.0324913  58.5988903
  62.7696993  58.3704913  58.3448903  63.3296993  59.5364913  57.8888903
  63.2106993  59.0094913  58.4568903  63.2776993  55.9734913  58.4898903
  62.8226993  55.5714913  57.8638903  64.0506993  56.1284913  58.1148903
  63.3246993  55.9374913  58.3418903  61.8756993  58.3404913  63.0118903
  61.9496993  58.9084913  62.3538903  61.9966993  58.8324913  63.7218903
  61.9036993  58.4974913  63.0198903  57.4766993  69.0854913  70.6358903
  58.3176993  69.1484913  70.4138903  57.4396993  69.4824913  71.4118903
  57.5956993  69.1534913  70.7178903  56.4836993  54.1634913  61.3598903
  57.0196993  54.8514913  61.3498903  56.4866993  53.8894913  60.5318903
  56.5626993  54.2244913  61.2358903  59.4396993  64.5964913  65.3848903
  59.6116993  64.3864913  66.2138903  58.7846993  64.0624913  65.1688903
  59.3686993  64.4864913  65.4758903  65.6676993  58.5104913  68.8998903
  65.5726993  58.8294913  69.7058903  65.0746993  57.8714913  68.8618903
  65.5656993  58.4624913  69.0138903  60.1896993  64.5344913  67.9748903
  60.2426993  65.3814913  68.1768903  59.9046993  64.1644913  68.7118903
  60.1556993  64.6044913  68.1128903  66.3666993  65.2294913  67.1048903
  65.8526993  64.8174913  67.6758903  66.2406993  66.0734913  67.2858903
  66.2726993  65.2934913  67.2158903  53.0106993  68.9054913  74.1858903
  53.7666993  69.2544913  74.4438903  53.1876993  68.0524913  74.1288903
  53.1486993  68.8304913  74.2158903  56.9316993  57.9734913  63.0138903
  57.2036993  57.5434913  62.3058903  56.7556993  57.3374913  63.5848903
  56.9456993  57.8164913  62.9938903  56.7556993  65.4004913  62.5628903
  57.6066993  65.3204913  62.3898903  56.3986993  64.7184913  62.1508903
  56.8286993  65.2874913  62.4758903  55.0726993  59.0754913  66.0958903
  55.9156993  59.2954913  66.0528903  54.6836993  59.6484913  65.5648903
  55.1396993  59.1924913  66.0108903  59.1236993  65.4074913  60.7978903
  59.8366993  65.9024913  60.8878903  59.3456993  64.8404913  60.1718903
  59.2616993  65.3964913  60.7188903  53.2796993  67.0504913  64.1178903
  52.6126993  67.5384913  64.3938903  53.9596993  67.5954913  64.1468903
  53.2816993  67.2024913  64.1628903  60.9266993  60.7604913  74.2138903
  60.4426993  61.3374913  74.6558903  60.8986993  61.0554913  73.3928903
  60.8506993  60.8894913  74.1578903  53.3456993  63.7344913  59.2208903
  53.1606993  62.8954913  59.3728903  54.0046993  63.6984913  58.6508903
  53.4156993  63.6054913  59.1588903  63.6466993  69.1104913  63.1248903
  63.1236993  69.7444913  62.8318903  63.9566993  68.7464913  62.3958903
  63.6146993  69.1504913  62.9738903  53.5176993  67.8984913  58.7958903
  54.0696993  68.4674913  59.1598903  53.2856993  67.3834913  59.4608903
  53.5646993  67.9064913  58.9478903  57.7216993  66.8984913  65.8848903
  58.1886993  67.1874913  66.5628903  58.2936993  66.4204913  65.4308903
  57.8756993  66.8704913  65.9178903  53.3476993  66.3474913  56.4238903
  54.1036993  65.9154913  56.4818903  53.3626993  66.8794913  57.1148903
  53.4616993  66.3624913  56.5348903  54.2876993  64.5684913  64.4288903
  54.7186993  64.4394913  63.6818903  54.0826993  65.4164913  64.4028903
  54.3206993  64.6744913  64.3148903  60.6336993  58.1324913  58.0788903
  60.6316993  58.0154913  57.2138903  60.4526993  58.9804913  58.1708903
  60.6066993  58.2404913  57.9648903  58.3716993  68.0844913  62.7108903
  58.4976993  68.9274913  62.8978903  59.0396993  67.6854913  63.1068903
  58.4896993  68.1504913  62.7968903  56.5016993  61.5674913  72.5728903
  55.9656993  61.0614913  73.0408903  56.5216993  61.1774913  71.7928903
  56.4246993  61.4344913  72.5268903  56.9866993  60.9644913  57.7128903
  56.8586993  60.5164913  58.4508903  56.4046993  60.6224913  57.1608903
  56.8816993  60.8474913  57.7408903  57.1536993  62.7944913  64.3118903
  56.3726993  62.7354913  63.9288903  57.2256993  62.0424913  64.7488903
  57.0486993  62.6754913  64.3198903  57.5836993  62.5314913  67.7798903
  57.6086993  61.8564913  67.2288903  56.9376993  63.0274913  67.4678903
  57.4926993  62.5044913  67.6528903  64.1236993  56.1504913  69.6048903
  64.2726993  55.3254913  69.3618903  64.5026993  56.2054913  70.3888903
  64.2016993  56.0364913  69.6848903  65.6716993  58.2134913  59.6868903
  66.1616993  58.9304913  59.6098903  64.8816993  58.4744913  59.4238903
  65.6276993  58.3574913  59.6368903  55.3826993  63.8864913  73.3388903
  55.3456993  64.3874913  72.6248903  55.7136993  63.1344913  73.0438903
  55.4256993  63.8484913  73.1898903  61.2816993  68.9364913  72.7738903
  61.6356993  68.7584913  73.5508903  60.8456993  68.2074913  72.5748903
  61.2696993  68.8024913  72.8598903  62.2536993  59.6834913  65.4118903
  62.7336993  60.3824913  65.6198903  62.6266993  59.0364913  65.8628903
  62.3796993  59.6914913  65.5088903  64.4426993  62.8524913  57.6858903
  64.4346993  63.5744913  57.1958903  63.8036993  62.9874913  58.2628903
  64.3476993  62.9794913  57.6988903  65.4726993  66.6394913  64.9108903
  64.6756993  66.8634913  65.1848903  65.7306993  66.0454913  65.4958903
  65.3926993  66.5844913  65.0378903  59.0356993  55.1944913  57.3468903
  59.1326993  55.0874913  58.2078903  58.3276993  55.7004913  57.2818903
  58.9456993  55.2534913  57.4648903  56.1576993  63.5014913  58.5898903
  56.4816993  62.7224913  58.3678903  56.8036993  63.8694913  59.0448903
  56.3006993  63.4404913  58.6238903  64.4636993  64.4434913  69.3568903
  64.3086993  65.0534913  69.9608903  64.9976993  63.8854913  69.7628903
  64.5196993  64.4514913  69.5058903  53.1546993  55.1624913  59.5578903
  53.2836993  54.4544913  59.0658903  52.7876993  54.8444913  60.2828903
  53.1196993  55.0104913  59.5928903  62.8476993  62.8434913  60.0148903
  62.9066993  63.4934913  60.5938903  62.6586993  62.1474913  60.5058903
  62.8286993  62.8364913  60.1728903  57.3436993  57.3604913  56.5268903
  56.8326993  57.4134913  55.8208903  58.1276993  57.6004913  56.2308903
  57.3836993  57.4034913  56.3788903  62.0706993  64.8904913  64.4458903
  61.2236993  64.6964913  64.5268903  62.3946993  64.7254913  65.2388903
  61.9926993  64.8374913  64.5748903  55.9186993  64.5834913  66.7618903
  56.6406993  65.0714913  66.7248903  55.6486993  64.5534913  65.9328903
  55.9856993  64.6514913  66.6338903  59.1486993  59.7544913  63.4968903
  59.9946993  59.5644913  63.5948903  58.7786993  58.9774913  63.3588903
  59.2186993  59.6114913  63.4908903  53.9696993  61.0924913  60.1518903
  54.4586993  60.8004913  60.8128903  54.0986993  60.4994913  59.5248903
  54.0606993  60.9614913  60.1568903  58.4946993  62.5264913  55.6378903
  57.8846993  62.1214913  56.1118903  58.1086993  62.6444913  54.8648903
  58.3476993  62.4834913  55.5938903  55.3136993  65.6354913  71.0398903
  54.8926993  65.1174913  70.4788903  54.9616993  66.4214913  70.8968903
  55.1996993  65.6754913  70.9358903  59.9496993  60.9874913  58.3478903
  60.2216993  61.8134913  58.4148903  59.0866993  61.0624913  58.2518903
  59.8626993  61.1204913  58.3428903  53.4296993  56.9574913  64.8838903
  53.4736993  57.3014913  64.0828903  54.1846993  57.1944913  65.2508903
  53.5476993  57.0434913  64.8198903  65.3706993  66.2964913  56.3538903
  66.0546993  65.7824913  56.1848903  64.9536993  66.3424913  55.5888903
  65.4096993  66.2274913  56.2158903  60.0526993  67.4464913  67.6578903
  59.7546993  68.0384913  68.2248903  60.1076993  67.8884913  66.9088903
  60.0166993  67.5994913  67.6308903  58.0316993  66.3964913  71.0558903
  57.2256993  66.1064913  71.2228903  57.9426993  67.2644913  71.0618903
  57.8996993  66.4814913  71.0808903  62.5686993  63.8694913  67.1488903
  63.0446993  64.2434913  67.7768903  61.7456993  64.0034913  67.4078903
  62.5176993  63.9444913  67.2798903  59.2786993  59.4724913  69.8898903
  59.4396993  58.7284913  70.3168903  59.2336993  59.2234913  69.0548903
  59.2956993  59.3254913  69.8298903  61.0306993  55.2804913  69.7698903
  61.7356993  55.6004913  69.3678903  61.2716993  54.4734913  69.9968903
  61.1696993  55.2084913  69.7438903  60.0156993  69.4904913  65.7658903
  59.3916993  70.0724913  65.5838903  60.2636993  69.2044913  64.9798903
  59.9596993  69.5344913  65.6228903  64.3246993  66.1244913  72.7548903
  65.0816993  66.4104913  72.4288903  63.7776993  66.1764913  72.0768903
  64.3556993  66.1744913  72.6058903  61.6096993  64.2664913  55.6808903
  60.8046993  64.0894913  55.3958903  61.5766993  65.1174913  55.8728903
  61.4856993  64.3654913  55.6678903  57.5396993  60.3334913  65.8308903
  57.9796993  60.2304913  65.0848903  58.0846993  60.0204913  66.4358903
  57.6846993  60.2724913  65.8098903  65.5556993  59.4354913  71.4228903
  64.9076993  59.9054913  71.7708903  66.1206993  59.3464913  72.0818903
  65.5436993  59.4914913  71.5718903  65.2436993  60.9724913  67.7208903
  65.5456993  61.3924913  68.4238903  65.2796993  60.1324913  67.9528903
  65.2936993  60.9104913  67.8588903  61.0866993  55.3184913  65.8778903
  60.2606993  55.1694913  66.1148903  61.0466993  55.3534913  65.0068903
  60.9586993  55.3014913  65.7838903  62.7276993  66.3584913  70.6658903
  61.9326993  66.2944913  71.0168903  62.7986993  67.2054913  70.4708903
  62.6206993  66.4734913  70.6888903  53.6516993  55.7164913  71.9128903
  53.5116993  56.5114913  71.5818903  52.8656993  55.4734913  72.2018903
  53.5146993  55.7984913  71.9068903  56.7156993  58.4604913  59.1378903
  56.8416993  58.1314913  58.3398903  55.9036993  58.2114913  59.3368903
  56.6146993  58.3754913  59.0498903  65.4726993  65.6134913  62.1818903
  65.5486993  65.9544913  62.9808903  65.6416993  64.7664913  62.3028903
  65.5086993  65.5384913  62.3178903  62.9946993  64.8874913  61.7468903
  62.6966993  64.5724913  62.5038903  63.6896993  65.3604913  61.9818903
  63.0536993  64.9104913  61.8938903  63.2166993  69.0054913  69.7738903
  63.9036993  68.8914913  70.2988903  63.3506993  69.7964913  69.4298903
  63.3376993  69.1054913  69.8008903  63.8396993  63.4694913  73.3478903
  64.1626993  64.1554913  72.9158903  63.1356993  63.7924913  73.7498903
  63.7826993  63.6184913  73.3428903  63.6246993  66.9334913  67.2068903
  62.9306993  67.3354913  67.5498903  64.3016993  67.3664913  67.5458903
  63.6216993  67.0564913  67.3078903  56.6926993  60.4714913  69.5538903
  57.0676993  61.0904913  69.0668903  57.3666993  59.9974913  69.8388903
  56.8476993  60.4934913  69.5238903  54.4676993  58.9194913  68.8288903
  54.5446993  58.7504913  67.9758903  55.2136993  59.3254913  69.0258903
  54.5886993  58.9544913  68.7318903  57.0216993  56.3294913  71.2398903
  56.9406993  55.4854913  71.4458903  56.7076993  56.3734913  70.4268903
  56.9636993  56.2114913  71.1498903  63.9466993  68.5244913  60.3758903
  63.7416993  69.3574913  60.2168903  63.1716993  68.1424913  60.4978903
  63.8016993  68.5914913  60.3708903  53.8646993  64.1454913  69.0528903
  54.1846993  64.3644913  68.2718903  53.7646993  63.2804913  68.9978903
  53.8966993  64.0504913  68.9298903  55.3206993  60.0814913  55.6708903
  54.6486993  60.0954913  56.2268903  55.4156993  59.2334913  55.4868903
  55.2356993  59.9584913  55.7258903  65.0076993  56.5054913  72.4068903
  65.0996993  57.2174913  72.9008903  64.3706993  56.0604913  72.8038903
  64.9266993  56.5444913  72.5388903  64.0016993  56.6954913  63.2608903
  63.3016993  57.2134913  63.2048903  64.0396993  56.3154913  62.4768903
  63.9036993  56.7164913  63.1368903  59.3086993  68.7864913  56.7848903
  59.7496993  68.8664913  57.5328903  58.5036993  68.5704913  57.0428903
  59.2546993  68.7664913  56.9338903  58.6276993  63.4374913  70.4378903
  58.2316993  64.2114913  70.5128903  58.2216993  63.0644913  69.7618903
  58.5096993  63.4964913  70.3488903  56.6376993  67.8564913  57.3858903
  56.3936993  67.5494913  58.1658903  56.6046993  67.1534913  56.8698903
  56.5966993  67.7074913  57.4248903  59.4566993  66.1014913  56.1288903
  58.6386993  65.8334913  56.2688903  59.4286993  66.9534913  56.3138903
  59.3316993  66.1884913  56.1768903  59.0566993  56.4144913  67.8878903
  58.1926993  56.4984913  67.9678903  59.2766993  55.9004913  68.5568903
  58.9616993  56.3514913  67.9988903  63.1596993  57.1624913  66.2618903
  62.4226993  56.7084913  66.3748903  63.7306993  56.7604913  66.7848903
  63.1346993  57.0354913  66.3558903  65.8916993  68.0104913  68.0498903
  66.0976993  68.3114913  68.8418903  65.8306993  68.7324913  67.5648903
  65.9126993  68.1614913  68.0948903  60.6626993  61.4914913  71.4658903
  60.3406993  60.9154913  70.8958903  60.3036993  62.2464913  71.2198903
  60.5626993  61.5174913  71.3458903  61.4586993  54.7434913  56.0928903
  61.5366993  54.9904913  55.2598903  60.7156993  55.1204913  56.3508903
  61.3606993  54.8354913  56.0078903  56.2766993  56.4974913  68.5358903
  55.9336993  55.7304913  68.3018903  55.5816993  57.0214913  68.5998903
  56.1236993  56.4614913  68.5108903  65.3226993  55.3534913  65.5128903
  65.9926993  55.8974913  65.6398903  64.8196993  55.7774913  64.9398903
  65.3476993  55.4964913  65.4468903  64.6816993  61.1614913  63.0058903
  65.2326993  60.5544913  63.3058903  64.2566993  61.4244913  63.7208903
  64.7006993  61.1104913  63.1548903  54.9296993  59.8114913  62.4918903
  54.5616993  60.1134913  63.2228903  55.4636993  59.1824913  62.7758903
  54.9536993  59.7634913  62.6418903  54.6176993  68.2194913  70.0028903
  54.0436993  68.6354913  70.5118903  55.3506993  68.6844913  70.0978903
  54.6416993  68.3494913  70.0918903  60.5706993  63.8834913  58.5058903
  60.6706993  64.0224913  57.6508903  61.3886993  63.8234913  58.8018903
  60.7056993  63.8944913  58.4228903  65.8056993  68.2124913  58.3078903
  65.5546993  68.0844913  59.1338903  65.4886993  67.5174913  57.8868903
  65.7216993  68.0914913  58.3678903  59.7096993  56.8584913  71.6218903
  59.9436993  56.2824913  71.0088903  58.8676993  56.6774913  71.7628903
  59.6196993  56.7464913  71.5518903  62.6916993  66.4204913  57.7378903
  63.4086993  66.0734913  57.3818903  62.6576993  67.2204913  57.3898903
  62.7926993  66.4874913  57.6338903  64.1006993  55.0614913  41.9766493
  63.8556993  55.5494913  41.2966493  64.9636993  54.9884913  41.8766493
  64.1916993  55.1224913  41.8616493  63.9096993  61.9774913  46.6476493
  63.3856993  62.5734913  47.0106493  64.3066993  61.6094913  47.3316493
  63.8906993  62.0114913  46.8026493  53.7786993  66.1174913  42.1036493
  53.3376993  66.2354913  42.8466493  53.4956993  65.3424913  41.8186493
  53.6716993  66.0204913  42.1716493  53.5216993  59.9094913  38.6106493
  52.7436993  60.0714913  38.2506493  53.5606993  59.0384913  38.6326493
  53.4126993  59.8044913  38.5606493  56.6606993  65.1724913  37.2826493
  56.2686993  64.8014913  36.5966493  56.5806993  64.5744913  37.9116493
  56.5906993  65.0294913  37.2736493  56.2876993  66.8134913  41.1826493
  56.8956993  66.6434913  41.7856493  55.5366993  66.6734913  41.6036493
  56.2666993  66.7674913  41.3336493  60.5696993  56.1484913  41.1316493
  60.4996993  56.8254913  40.5856493  61.3106993  55.7604913  40.8826493
  60.6686993  56.1914913  41.0136493  55.1786993  69.9044913  37.2596493
  55.6456993  69.9884913  36.5276493  55.6336993  69.3264913  37.7286493
  55.3146993  69.8314913  37.2206493  53.7186993  68.8524913  48.3586493
  53.8476993  68.5724913  49.1746493  53.1086993  68.3114913  48.0496493
  53.6476993  68.7314913  48.4336493  60.2926993  66.3774913  53.4256493
  60.0566993  66.3744913  54.2656493  59.5446993  66.2294913  53.0016493
  60.1466993  66.3544913  53.4866493  55.1646993  63.3734913  42.5606493
  54.7026993  62.9814913  41.9336493  55.8646993  62.8604913  42.6526493
  55.1996993  63.2404913  42.4816493  59.6726993  58.9834913  47.9076493
  60.3506993  59.0014913  47.3586493  59.6276993  58.1474913  48.1526493
  59.7656993  58.8624913  47.8626493  57.1656993  61.4734913  42.5836493
  57.9826993  61.2864913  42.8266493  56.6886993  60.8594913  42.9796493
  57.2156993  61.3554913  42.6786493  61.3696993  67.4544913  45.1936493
  61.7176993  66.6554913  45.2236493  62.0346993  67.9584913  44.9386493
  61.5196993  67.4104913  45.1606493  61.4266993  66.9034913  41.4046493
  61.7576993  66.2594913  41.8906493  61.6666993  66.6924913  40.5936493
  61.5106993  66.7774913  41.3566493  63.3946993  61.0344913  52.7436493
  62.5466993  60.9354913  52.5656493  63.4236993  61.7794913  53.1976493
  63.2736993  61.1304913  52.7846493  57.7626993  56.5674913  41.8496493
  57.4666993  57.0684913  41.1996493  58.6296993  56.6454913  41.7926493
  57.8466993  56.6534913  41.7456493  60.7416993  55.7094913  44.0726493
  60.8146993  56.5694913  44.2016493  60.7036993  55.6344913  43.2046493
  60.7466993  55.8254913  43.9636493  65.4146993  58.6354913  36.3716493
  64.9646993  59.3164913  36.6786493  65.5286993  58.1314913  37.0746493
  65.3656993  58.6614913  36.5206493  53.6206993  61.1344913  45.5736493
  53.3646993  61.9654913  45.4986493  52.9566993  60.7514913  45.9906493
  53.4846993  61.2004913  45.6246493  59.3706993  68.6884913  40.9536493
  58.7916993  68.4134913  41.5456493  59.9946993  68.0794913  40.9786493
  59.3776993  68.5584913  41.0446493  56.6496993  55.9514913  46.0646493
  56.1286993  55.3234913  45.7566493  57.2406993  55.5144913  46.5356493
  56.6606993  55.7934913  46.0886493  59.9556993  58.0844913  55.3626493
  60.0726993  57.6304913  54.6266493  60.2436993  58.8824913  55.1596493
  60.0156993  58.1354913  55.2236493  55.6886993  57.6814913  54.3466493
  54.9106993  57.2914913  54.2746493  56.1796993  57.2694913  53.7556493
  55.6456993  57.5624913  54.2486493  55.8936993  68.0014913  44.9046493
  56.3166993  67.6454913  44.2306493  56.2176993  67.5794913  45.5966493
  56.0036993  67.8864913  44.9076493  62.3376993  55.3244913  53.5146493
  62.5156993  54.5154913  53.2396493  62.1946993  55.7654913  52.7756493
  62.3426993  55.2704913  53.3646493  62.9316993  60.2504913  42.2876493
  63.2186993  60.0184913  41.4976493  63.6636993  60.3294913  42.7566493
  63.0816993  60.2274913  42.2406493  63.6536993  60.5894913  37.4086493
  63.9346993  61.3774913  37.6576493  62.8776993  60.7544913  37.0456493
  63.5806993  60.7304913  37.3916493  53.0366993  58.2294913  51.9326493
  53.0326993  58.8164913  52.5786493  53.6306993  58.5414913  51.3756493
  53.1236993  58.3624913  51.9456493  65.3746993  68.5634913  52.4746493
  65.3406993  68.9454913  53.2586493  66.2286993  68.5214913  52.3036493
  65.4956993  68.6134913  52.5656493  62.5126993  68.7604913  37.2246493
  62.3316993  69.3054913  37.8816493  63.2786993  69.0504913  36.9236493
  62.5986993  68.8844913  37.2776493  53.9736993  57.8244913  40.8476493
  53.8596993  56.9604913  40.8786493  53.4986993  58.1184913  41.5176493
  53.8866993  57.7404913  40.9506493  63.2776993  59.0324913  39.5926493
  62.7696993  58.3704913  39.3386493  63.3296993  59.5364913  38.8826493
  63.2106993  59.0094913  39.4506493  63.2776993  55.9734913  39.4836493
  62.8226993  55.5714913  38.8576493  64.0506993  56.1284913  39.1086493
  63.3246993  55.9374913  39.3356493  61.8756993  58.3404913  44.0056493
  61.9496993  58.9084913  43.3476493  61.9966993  58.8324913  44.7156493
  61.9036993  58.4974913  44.0136493  57.4766993  69.0854913  51.6296493
  58.3176993  69.1484913  51.4076493  57.4396993  69.4824913  52.4056493
  57.5956993  69.1534913  51.7116493  56.4836993  54.1634913  42.3536493
  57.0196993  54.8514913  42.3436493  56.4866993  53.8894913  41.5256493
  56.5626993  54.2244913  42.2296493  59.4396993  64.5964913  46.3786493
  59.6116993  64.3864913  47.2076493  58.7846993  64.0624913  46.1626493
  59.3686993  64.4864913  46.4696493  65.6676993  58.5104913  49.8936493
  65.5726993  58.8294913  50.6996493  65.0746993  57.8714913  49.8556493
  65.5656993  58.4624913  50.0076493  60.1896993  64.5344913  48.9686493
  60.2426993  65.3814913  49.1706493  59.9046993  64.1644913  49.7056493
  60.1556993  64.6044913  49.1066493  66.3666993  65.2294913  48.0986493
  65.8526993  64.8174913  48.6696493  66.2406993  66.0734913  48.2796493
  66.2726993  65.2934913  48.2096493  53.0106993  68.9054913  55.1796493
  53.7666993  69.2544913  55.4376493  53.1876993  68.0524913  55.1226493
  53.1486993  68.8304913  55.2096493  56.9316993  57.9734913  44.0076493
  57.2036993  57.5434913  43.2996493  56.7556993  57.3374913  44.5786493
  56.9456993  57.8164913  43.9876493  56.7556993  65.4004913  43.5566493
  57.6066993  65.3204913  43.3836493  56.3986993  64.7184913  43.1446493
  56.8286993  65.2874913  43.4696493  55.0726993  59.0754913  47.0896493
  55.9156993  59.2954913  47.0466493  54.6836993  59.6484913  46.5586493
  55.1396993  59.1924913  47.0046493  59.1236993  65.4074913  41.7916493
  59.8366993  65.9024913  41.8816493  59.3456993  64.8404913  41.1656493
  59.2616993  65.3964913  41.7126493  53.2796993  67.0504913  45.1116493
  52.6126993  67.5384913  45.3876493  53.9596993  67.5954913  45.1406493
  53.2816993  67.2024913  45.1566493  60.9266993  60.7604913  55.2076493
  60.4426993  61.3374913  55.6496493  60.8986993  61.0554913  54.3866493
  60.8506993  60.8894913  55.1516493  53.3456993  63.7344913  40.2146493
  53.1606993  62.8954913  40.3666493  54.0046993  63.6984913  39.6446493
  53.4156993  63.6054913  40.1526493  63.6466993  69.1104913  44.1186493
  63.1236993  69.7444913  43.8256493  63.9566993  68.7464913  43.3896493
  63.6146993  69.1504913  43.9676493  53.5176993  67.8984913  39.7896493
  54.0696993  68.4674913  40.1536493  53.2856993  67.3834913  40.4546493
  53.5646993  67.9064913  39.9416493  57.7216993  66.8984913  46.8786493
  58.1886993  67.1874913  47.5566493  58.2936993  66.4204913  46.4246493
  57.8756993  66.8704913  46.9116493  53.3476993  66.3474913  37.4176493
  54.1036993  65.9154913  37.4756493  53.3626993  66.8794913  38.1086493
  53.4616993  66.3624913  37.5286493  54.2876993  64.5684913  45.4226493
  54.7186993  64.4394913  44.6756493  54.0826993  65.4164913  45.3966493
  54.3206993  64.6744913  45.3086493  60.6336993  58.1324913  39.0726493
  60.6316993  58.0154913  38.2076493  60.4526993  58.9804913  39.1646493
  60.6066993  58.2404913  38.9586493  58.3716993  68.0844913  43.7046493
  58.4976993  68.9274913  43.8916493  59.0396993  67.6854913  44.1006493
  58.4896993  68.1504913  43.7906493  56.5016993  61.5674913  53.5666493
  55.9656993  61.0614913  54.0346493  56.5216993  61.1774913  52.7866493
  56.4246993  61.4344913  53.5206493  56.9866993  60.9644913  38.7066493
  56.8586993  60.5164913  39.4446493  56.4046993  60.6224913  38.1546493
  56.8816993  60.8474913  38.7346493  57.1536993  62.7944913  45.3056493
  56.3726993  62.7354913  44.9226493  57.2256993  62.0424913  45.7426493
  57.0486993  62.6754913  45.3136493  57.5836993  62.5314913  48.7736493
  57.6086993  61.8564913  48.2226493  56.9376993  63.0274913  48.4616493
  57.4926993  62.5044913  48.6466493  64.1236993  56.1504913  50.5986493
  64.2726993  55.3254913  50.3556493  64.5026993  56.2054913  51.3826493
  64.2016993  56.0364913  50.6786493  65.6716993  58.2134913  40.6806493
  66.1616993  58.9304913  40.6036493  64.8816993  58.4744913  40.4176493
  65.6276993  58.3574913  40.6306493  55.3826993  63.8864913  54.3326493
  55.3456993  64.3874913  53.6186493  55.7136993  63.1344913  54.0376493
  55.4256993  63.8484913  54.1836493  61.2816993  68.9364913  53.7676493
  61.6356993  68.7584913  54.5446493  60.8456993  68.2074913  53.5686493
  61.2696993  68.8024913  53.8536493  62.2536993  59.6834913  46.4056493
  62.7336993  60.3824913  46.6136493  62.6266993  59.0364913  46.8566493
  62.3796993  59.6914913  46.5026493  64.4426993  62.8524913  38.6796493
  64.4346993  63.5744913  38.1896493  63.8036993  62.9874913  39.2566493
  64.3476993  62.9794913  38.6926493  65.4726993  66.6394913  45.9046493
  64.6756993  66.8634913  46.1786493  65.7306993  66.0454913  46.4896493
  65.3926993  66.5844913  46.0316493  59.0356993  55.1944913  38.3406493
  59.1326993  55.0874913  39.2016493  58.3276993  55.7004913  38.2756493
  58.9456993  55.2534913  38.4586493  56.1576993  63.5014913  39.5836493
  56.4816993  62.7224913  39.3616493  56.8036993  63.8694913  40.0386493
  56.3006993  63.4404913  39.6176493  64.4636993  64.4434913  50.3506493
  64.3086993  65.0534913  50.9546493  64.9976993  63.8854913  50.7566493
  64.5196993  64.4514913  50.4996493  53.1546993  55.1624913  40.5516493
  53.2836993  54.4544913  40.0596493  52.7876993  54.8444913  41.2766493
  53.1196993  55.0104913  40.5866493  62.8476993  62.8434913  41.0086493
  62.9066993  63.4934913  41.5876493  62.6586993  62.1474913  41.4996493
  62.8286993  62.8364913  41.1666493  57.3436993  57.3604913  37.5206493
  56.8326993  57.4134913  36.8146493  58.1276993  57.6004913  37.2246493
  57.3836993  57.4034913  37.3726493  62.0706993  64.8904913  45.4396493
  61.2236993  64.6964913  45.5206493  62.3946993  64.7254913  46.2326493
  61.9926993  64.8374913  45.5686493  55.9186993  64.5834913  47.7556493
  56.6406993  65.0714913  47.7186493  55.6486993  64.5534913  46.9266493
  55.9856993  64.6514913  47.6276493  59.1486993  59.7544913  44.4906493
  59.9946993  59.5644913  44.5886493  58.7786993  58.9774913  44.3526493
  59.2186993  59.6114913  44.4846493  53.9696993  61.0924913  41.1456493
  54.4586993  60.8004913  41.8066493  54.0986993  60.4994913  40.5186493
  54.0606993  60.9614913  41.1506493  58.4946993  62.5264913  36.6316493
  57.8846993  62.1214913  37.1056493  58.1086993  62.6444913  35.8586493
  58.3476993  62.4834913  36.5876493  55.3136993  65.6354913  52.0336493
  54.8926993  65.1174913  51.4726493  54.9616993  66.4214913  51.8906493
  55.1996993  65.6754913  51.9296493  59.9496993  60.9874913  39.3416493
  60.2216993  61.8134913  39.4086493  59.0866993  61.0624913  39.2456493
  59.8626993  61.1204913  39.3366493  53.4296993  56.9574913  45.8776493
  53.4736993  57.3014913  45.0766493  54.1846993  57.1944913  46.2446493
  53.5476993  57.0434913  45.8136493  65.3706993  66.2964913  37.3476493
  66.0546993  65.7824913  37.1786493  64.9536993  66.3424913  36.5826493
  65.4096993  66.2274913  37.2096493  60.0526993  67.4464913  48.6516493
  59.7546993  68.0384913  49.2186493  60.1076993  67.8884913  47.9026493
  60.0166993  67.5994913  48.6246493  58.0316993  66.3964913  52.0496493
  57.2256993  66.1064913  52.2166493  57.9426993  67.2644913  52.0556493
  57.8996993  66.4814913  52.0746493  62.5686993  63.8694913  48.1426493
  63.0446993  64.2434913  48.7706493  61.7456993  64.0034913  48.4016493
  62.5176993  63.9444913  48.2736493  59.2786993  59.4724913  50.8836493
  59.4396993  58.7284913  51.3106493  59.2336993  59.2234913  50.0486493
  59.2956993  59.3254913  50.8236493  61.0306993  55.2804913  50.7636493
  61.7356993  55.6004913  50.3616493  61.2716993  54.4734913  50.9906493
  61.1696993  55.2084913  50.7376493  60.0156993  69.4904913  46.7596493
  59.3916993  70.0724913  46.5776493  60.2636993  69.2044913  45.9736493
  59.9596993  69.5344913  46.6166493  64.3246993  66.1244913  53.7486493
  65.0816993  66.4104913  53.4226493  63.7776993  66.1764913  53.0706493
  64.3556993  66.1744913  53.5996493  61.6096993  64.2664913  36.6746493
  60.8046993  64.0894913  36.3896493  61.5766993  65.1174913  36.8666493
  61.4856993  64.3654913  36.6616493  57.5396993  60.3334913  46.8246493
  57.9796993  60.2304913  46.0786493  58.0846993  60.0204913  47.4296493
  57.6846993  60.2724913  46.8036493  65.5556993  59.4354913  52.4166493
  64.9076993  59.9054913  52.7646493  66.1206993  59.3464913  53.0756493
  65.5436993  59.4914913  52.5656493  65.2436993  60.9724913  48.7146493
  65.5456993  61.3924913  49.4176493  65.2796993  60.1324913  48.9466493
  65.2936993  60.9104913  48.8526493  61.0866993  55.3184913  46.8716493
  60.2606993  55.1694913  47.1086493  61.0466993  55.3534913  46.0006493
  60.9586993  55.3014913  46.7776493  62.7276993  66.3584913  51.6596493
  61.9326993  66.2944913  52.0106493  62.7986993  67.2054913  51.4646493
  62.6206993  66.4734913  51.6826493  53.6516993  55.7164913  52.9066493
  53.5116993  56.5114913  52.5756493  52.8656993  55.4734913  53.1956493
  53.5146993  55.7984913  52.9006493  56.7156993  58.4604913  40.1316493
  56.8416993  58.1314913  39.3336493  55.9036993  58.2114913  40.3306493
  56.6146993  58.3754913  40.0436493  65.4726993  65.6134913  43.1756493
  65.5486993  65.9544913  43.9746493  65.6416993  64.7664913  43.2966493
  65.5086993  65.5384913  43.3116493  62.9946993  64.8874913  42.7406493
  62.6966993  64.5724913  43.4976493  63.6896993  65.3604913  42.9756493
  63.0536993  64.9104913  42.8876493  63.2166993  69.0054913  50.7676493
  63.9036993  68.8914913  51.2926493  63.3506993  69.7964913  50.4236493
  63.3376993  69.1054913  50.7946493  63.8396993  63.4694913  54.3416493
  64.1626993  64.1554913  53.9096493  63.1356993  63.7924913  54.7436493
  63.7826993  63.6184913  54.3366493  63.6246993  66.9334913  48.2006493
  62.9306993  67.3354913  48.5436493  64.3016993  67.3664913  48.5396493
  63.6216993  67.0564913  48.3016493  56.6926993  60.4714913  50.5476493
  57.0676993  61.0904913  50.0606493  57.3666993  59.9974913  50.8326493
  56.8476993  60.4934913  50.5176493  54.4676993  58.9194913  49.8226493
  54.5446993  58.7504913  48.9696493  55.2136993  59.3254913  50.0196493
  54.5886993  58.9544913  49.7256493  57.0216993  56.3294913  52.2336493
  56.9406993  55.4854913  52.4396493  56.7076993  56.3734913  51.4206493
  56.9636993  56.2114913  52.1436493  63.9466993  68.5244913  41.3696493
  63.7416993  69.3574913  41.2106493  63.1716993  68.1424913  41.4916493
  63.8016993  68.5914913  41.3646493  53.8646993  64.1454913  50.0466493
  54.1846993  64.3644913  49.2656493  53.7646993  63.2804913  49.9916493
  53.8966993  64.0504913  49.9236493  55.3206993  60.0814913  36.6646493
  54.6486993  60.0954913  37.2206493  55.4156993  59.2334913  36.4806493
  55.2356993  59.9584913  36.7196493  65.0076993  56.5054913  53.4006493
  65.0996993  57.2174913  53.8946493  64.3706993  56.0604913  53.7976493
  64.9266993  56.5444913  53.5326493  64.0016993  56.6954913  44.2546493
  63.3016993  57.2134913  44.1986493  64.0396993  56.3154913  43.4706493
  63.9036993  56.7164913  44.1306493  59.3086993  68.7864913  37.7786493
  59.7496993  68.8664913  38.5266493  58.5036993  68.5704913  38.0366493
  59.2546993  68.7664913  37.9276493  58.6276993  63.4374913  51.4316493
  58.2316993  64.2114913  51.5066493  58.2216993  63.0644913  50.7556493
  58.5096993  63.4964913  51.3426493  56.6376993  67.8564913  38.3796493
  56.3936993  67.5494913  39.1596493  56.6046993  67.1534913  37.8636493
  56.5966993  67.7074913  38.4186493  59.4566993  66.1014913  37.1226493
  58.6386993  65.8334913  37.2626493  59.4286993  66.9534913  37.3076493
  59.3316993  66.1884913  37.1706493  59.0566993  56.4144913  48.8816493
  58.1926993  56.4984913  48.9616493  59.2766993  55.9004913  49.5506493
  58.9616993  56.3514913  48.9926493  63.1596993  57.1624913  47.2556493
  62.4226993  56.7084913  47.3686493  63.7306993  56.7604913  47.7786493
  63.1346993  57.0354913  47.3496493  65.8916993  68.0104913  49.0436493
  66.0976993  68.3114913  49.8356493  65.8306993  68.7324913  48.5586493
  65.9126993  68.1614913  49.0886493  60.6626993  61.4914913  52.4596493
  60.3406993  60.9154913  51.8896493  60.3036993  62.2464913  52.2136493
  60.5626993  61.5174913  52.3396493  61.4586993  54.7434913  37.0866493
  61.5366993  54.9904913  36.2536493  60.7156993  55.1204913  37.3446493
  61.3606993  54.8354913  37.0016493  56.2766993  56.4974913  49.5296493
  55.9336993  55.7304913  49.2956493  55.5816993  57.0214913  49.5936493
  56.1236993  56.4614913  49.5046493  65.3226993  55.3534913  46.5066493
  65.9926993  55.8974913  46.6336493  64.8196993  55.7774913  45.9336493
  65.3476993  55.4964913  46.4406493  64.6816993  61.1614913  43.9996493
  65.2326993  60.5544913  44.2996493  64.2566993  61.4244913  44.7146493
  64.7006993  61.1104913  44.1486493  54.9296993  59.8114913  43.4856493
  54.5616993  60.1134913  44.2166493  55.4636993  59.1824913  43.7696493
  54.9536993  59.7634913  43.6356493  54.6176993  68.2194913  50.9966493
  54.0436993  68.6354913  51.5056493  55.3506993  68.6844913  51.0916493
  54.6416993  68.3494913  51.0856493  60.5706993  63.8834913  39.4996493
  60.6706993  64.0224913  38.6446493  61.3886993  63.8234913  39.7956493
  60.7056993  63.8944913  39.4166493  65.8056993  68.2124913  39.3016493
  65.5546993  68.0844913  40.1276493  65.4886993  67.5174913  38.8806493
  65.7216993  68.0914913  39.3616493  59.7096993  56.8584913  52.6156493
  59.9436993  56.2824913  52.0026493  58.8676993  56.6774913  52.7566493
  59.6196993  56.7464913  52.5456493  62.6916993  66.4204913  38.7316493
  63.4086993  66.0734913  38.3756493  62.6576993  67.2204913  38.3836493
  62.7926993  66.4874913  38.6276493  64.1006993  55.0614913  22.9704083
  63.8556993  55.5494913  22.2904083  64.9636993  54.9884913  22.8704083
  64.1916993  55.1224913  22.8554083  63.9096993  61.9774913  27.6414083
  63.3856993  62.5734913  28.0044083  64.3066993  61.6094913  28.3254083
  63.8906993  62.0114913  27.7964083  53.7786993  66.1174913  23.0974083
  53.3376993  66.2354913  23.8404083  53.4956993  65.3424913  22.8124083
  53.6716993  66.0204913  23.1654083  53.5216993  59.9094913  19.6044083
  52.7436993  60.0714913  19.2444083  53.5606993  59.0384913  19.6264083
  53.4126993  59.8044913  19.5544083  56.6606993  65.1724913  18.2764083
  56.2686993  64.8014913  17.5904083  56.5806993  64.5744913  18.9054083
  56.5906993  65.0294913  18.2674083  56.2876993  66.8134913  22.1764083
  56.8956993  66.6434913  22.7794083  55.5366993  66.6734913  22.5974083
  56.2666993  66.7674913  22.3274083  60.5696993  56.1484913  22.1254083
  60.4996993  56.8254913  21.5794083  61.3106993  55.7604913  21.8764083
  60.6686993  56.1914913  22.0074083  55.1786993  69.9044913  18.2534083
  55.6456993  69.9884913  17.5214083  55.6336993  69.3264913  18.7224083
  55.3146993  69.8314913  18.2144083  53.7186993  68.8524913  29.3524083
  53.8476993  68.5724913  30.1684083  53.1086993  68.3114913  29.0434083
  53.6476993  68.7314913  29.4274083  60.2926993  66.3774913  34.4194083
  60.0566993  66.3744913  35.2594083  59.5446993  66.2294913  33.9954083
  60.1466993  66.3544913  34.4804083  55.1646993  63.3734913  23.5544083
  54.7026993  62.9814913  22.9274083  55.8646993  62.8604913  23.6464083
  55.1996993  63.2404913  23.4754083  59.6726993  58.9834913  28.9014083
  60.3506993  59.0014913  28.3524083  59.6276993  58.1474913  29.1464083
  59.7656993  58.8624913  28.8564083  57.1656993  61.4734913  23.5774083
  57.9826993  61.2864913  23.8204083  56.6886993  60.8594913  23.9734083
  57.2156993  61.3554913  23.6724083  61.3696993  67.4544913  26.1874083
  61.7176993  66.6554913  26.2174083  62.0346993  67.9584913  25.9324083
  61.5196993  67.4104913  26.1544083  61.4266993  66.9034913  22.3984083
  61.7576993  66.2594913  22.8844083  61.6666993  66.6924913  21.5874083
  61.5106993  66.7774913  22.3504083  63.3946993  61.0344913  33.7374083
  62.5466993  60.9354913  33.5594083  63.4236993  61.7794913  34.1914083
  63.2736993  61.1304913  33.7784083  57.7626993  56.5674913  22.8434083
  57.4666993  57.0684913  22.1934083  58.6296993  56.6454913  22.7864083
  57.8466993  56.6534913  22.7394083  60.7416993  55.7094913  25.0664083
  60.8146993  56.5694913  25.1954083  60.7036993  55.6344913  24.1984083
  60.7466993  55.8254913  24.9574083  65.4146993  58.6354913  17.3654083
  64.9646993  59.3164913  17.6724083  65.5286993  58.1314913  18.0684083
  65.3656993  58.6614913  17.5144083  53.6206993  61.1344913  26.5674083
  53.3646993  61.9654913  26.4924083  52.9566993  60.7514913  26.9844083
  53.4846993  61.2004913  26.6184083  59.3706993  68.6884913  21.9474083
  58.7916993  68.4134913  22.5394083  59.9946993  68.0794913  21.9724083
  59.3776993  68.5584913  22.0384083  56.6496993  55.9514913  27.0584083
  56.1286993  55.3234913  26.7504083  57.2406993  55.5144913  27.5294083
  56.6606993  55.7934913  27.0824083  59.9556993  58.0844913  36.3564083
  60.0726993  57.6304913  35.6204083  60.2436993  58.8824913  36.1534083
  60.0156993  58.1354913  36.2174083  55.6886993  57.6814913  35.3404083
  54.9106993  57.2914913  35.2684083  56.1796993  57.2694913  34.7494083
  55.6456993  57.5624913  35.2424083  55.8936993  68.0014913  25.8984083
  56.3166993  67.6454913  25.2244083  56.2176993  67.5794913  26.5904083
  56.0036993  67.8864913  25.9014083  62.3376993  55.3244913  34.5084083
  62.5156993  54.5154913  34.2334083  62.1946993  55.7654913  33.7694083
  62.3426993  55.2704913  34.3584083  62.9316993  60.2504913  23.2814083
  63.2186993  60.0184913  22.4914083  63.6636993  60.3294913  23.7504083
  63.0816993  60.2274913  23.2344083  63.6536993  60.5894913  18.4024083
  63.9346993  61.3774913  18.6514083  62.8776993  60.7544913  18.0394083
  63.5806993  60.7304913  18.3854083  53.0366993  58.2294913  32.9264083
  53.0326993  58.8164913  33.5724083  53.6306993  58.5414913  32.3694083
  53.1236993  58.3624913  32.9394083  65.3746993  68.5634913  33.4684083
  65.3406993  68.9454913  34.2524083  66.2286993  68.5214913  33.2974083
  65.4956993  68.6134913  33.5594083  62.5126993  68.7604913  18.2184083
  62.3316993  69.3054913  18.8754083  63.2786993  69.0504913  17.9174083
  62.5986993  68.8844913  18.2714083  53.9736993  57.8244913  21.8414083
  53.8596993  56.9604913  21.8724083  53.4986993  58.1184913  22.5114083
  53.8866993  57.7404913  21.9444083  63.2776993  59.0324913  20.5864083
  62.7696993  58.3704913  20.3324083  63.3296993  59.5364913  19.8764083
  63.2106993  59.0094913  20.4444083  63.2776993  55.9734913  20.4774083
  62.8226993  55.5714913  19.8514083  64.0506993  56.1284913  20.1024083
  63.3246993  55.9374913  20.3294083  61.8756993  58.3404913  24.9994083
  61.9496993  58.9084913  24.3414083  61.9966993  58.8324913  25.7094083
  61.9036993  58.4974913  25.0074083  57.4766993  69.0854913  32.6234083
  58.3176993  69.1484913  32.4014083  57.4396993  69.4824913  33.3994083
  57.5956993  69.1534913  32.7054083  56.4836993  54.1634913  23.3474083
  57.0196993  54.8514913  23.3374083  56.4866993  53.8894913  22.5194083
  56.5626993  54.2244913  23.2234083  59.4396993  64.5964913  27.3724083
  59.6116993  64.3864913  28.2014083  58.7846993  64.0624913  27.1564083
  59.3686993  64.4864913  27.4634083  65.6676993  58.5104913  30.8874083
  65.5726993  58.8294913  31.6934083  65.0746993  57.8714913  30.8494083
  65.5656993  58.4624913  31.0014083  60.1896993  64.5344913  29.9624083
  60.2426993  65.3814913  30.1644083  59.9046993  64.1644913  30.6994083
  60.1556993  64.6044913  30.1004083  66.3666993  65.2294913  29.0924083
  65.8526993  64.8174913  29.6634083  66.2406993  66.0734913  29.2734083
  66.2726993  65.2934913  29.2034083  53.0106993  68.9054913  36.1734083
  53.7666993  69.2544913  36.4314083  53.1876993  68.0524913  36.1164083
  53.1486993  68.8304913  36.2034083  56.9316993  57.9734913  25.0014083
  57.2036993  57.5434913  24.2934083  56.7556993  57.3374913  25.5724083
  56.9456993  57.8164913  24.9814083  56.7556993  65.4004913  24.5504083
  57.6066993  65.3204913  24.3774083  56.3986993  64.7184913  24.1384083
  56.8286993  65.2874913  24.4634083  55.0726993  59.0754913  28.0834083
  55.9156993  59.2954913  28.0404083  54.6836993  59.6484913  27.5524083
  55.1396993  59.1924913  27.9984083  59.1236993  65.4074913  22.7854083
  59.8366993  65.9024913  22.8754083  59.3456993  64.8404913  22.1594083
  59.2616993  65.3964913  22.7064083  53.2796993  67.0504913  26.1054083
  52.6126993  67.5384913  26.3814083  53.9596993  67.5954913  26.1344083
  53.2816993  67.2024913  26.1504083  60.9266993  60.7604913  36.2014083
  60.4426993  61.3374913  36.6434083  60.8986993  61.0554913  35.3804083
  60.8506993  60.8894913  36.1454083  53.3456993  63.7344913  21.2084083
  53.1606993  62.8954913  21.3604083  54.0046993  63.6984913  20.6384083
  53.4156993  63.6054913  21.1464083  63.6466993  69.1104913  25.1124083
  63.1236993  69.7444913  24.8194083  63.9566993  68.7464913  24.3834083
  63.6146993  69.1504913  24.9614083  53.5176993  67.8984913  20.7834083
  54.0696993  68.4674913  21.1474083  53.2856993  67.3834913  21.4484083
  53.5646993  67.9064913  20.9354083  57.7216993  66.8984913  27.8724083
  58.1886993  67.1874913  28.5504083  58.2936993  66.4204913  27.4184083
  57.8756993  66.8704913  27.9054083  53.3476993  66.3474913  18.4114083
  54.1036993  65.9154913  18.4694083  53.3626993  66.8794913  19.1024083
  53.4616993  66.3624913  18.5224083  54.2876993  64.5684913  26.4164083
  54.7186993  64.4394913  25.6694083  54.0826993  65.4164913  26.3904083
  54.3206993  64.6744913  26.3024083  60.6336993  58.1324913  20.0664083
  60.6316993  58.0154913  19.2014083  60.4526993  58.9804913  20.1584083
  60.6066993  58.2404913  19.9524083  58.3716993  68.0844913  24.6984083
  58.4976993  68.9274913  24.8854083  59.0396993  67.6854913  25.0944083
  58.4896993  68.1504913  24.7844083  56.5016993  61.5674913  34.5604083
  55.9656993  61.0614913  35.0284083  56.5216993  61.1774913  33.7804083
  56.4246993  61.4344913  34.5144083  56.9866993  60.9644913  19.7004083
  56.8586993  60.5164913  20.4384083  56.4046993  60.6224913  19.1484083
  56.8816993  60.8474913  19.7284083  57.1536993  62.7944913  26.2994083
  56.3726993  62.7354913  25.9164083  57.2256993  62.0424913  26.7364083
  57.0486993  62.6754913  26.3074083  57.5836993  62.5314913  29.7674083
  57.6086993  61.8564913  29.2164083  56.9376993  63.0274913  29.4554083
  57.4926993  62.5044913  29.6404083  64.1236993  56.1504913  31.5924083
  64.2726993  55.3254913  31.3494083  64.5026993  56.2054913  32.3764083
  64.2016993  56.0364913  31.6724083  65.6716993  58.2134913  21.6744083
  66.1616993  58.9304913  21.5974083  64.8816993  58.4744913  21.4114083
  65.6276993  58.3574913  21.6244083  55.3826993  63.8864913  35.3264083
  55.3456993  64.3874913  34.6124083  55.7136993  63.1344913  35.0314083
  55.4256993  63.8484913  35.1774083  61.2816993  68.9364913  34.7614083
  61.6356993  68.7584913  35.5384083  60.8456993  68.2074913  34.5624083
  61.2696993  68.8024913  34.8474083  62.2536993  59.6834913  27.3994083
  62.7336993  60.3824913  27.6074083  62.6266993  59.0364913  27.8504083
  62.3796993  59.6914913  27.4964083  64.4426993  62.8524913  19.6734083
  64.4346993  63.5744913  19.1834083  63.8036993  62.9874913  20.2504083
  64.3476993  62.9794913  19.6864083  65.4726993  66.6394913  26.8984083
  64.6756993  66.8634913  27.1724083  65.7306993  66.0454913  27.4834083
  65.3926993  66.5844913  27.0254083  59.0356993  55.1944913  19.3344083
  59.1326993  55.0874913  20.1954083  58.3276993  55.7004913  19.2694083
  58.9456993  55.2534913  19.4524083  56.1576993  63.5014913  20.5774083
  56.4816993  62.7224913  20.3554083  56.8036993  63.8694913  21.0324083
  56.3006993  63.4404913  20.6114083  64.4636993  64.4434913  31.3444083
  64.3086993  65.0534913  31.9484083  64.9976993  63.8854913  31.7504083
  64.5196993  64.4514913  31.4934083  53.1546993  55.1624913  21.5454083
  53.2836993  54.4544913  21.0534083  52.7876993  54.8444913  22.2704083
  53.1196993  55.0104913  21.5804083  62.8476993  62.8434913  22.0024083
  62.9066993  63.4934913  22.5814083  62.6586993  62.1474913  22.4934083
  62.8286993  62.8364913  22.1604083  57.3436993  57.3604913  18.5144083
  56.8326993  57.4134913  17.8084083  58.1276993  57.6004913  18.2184083
  57.3836993  57.4034913  18.3664083  62.0706993  64.8904913  26.4334083
  61.2236993  64.6964913  26.5144083  62.3946993  64.7254913  27.2264083
  61.9926993  64.8374913  26.5624083  55.9186993  64.5834913  28.7494083
  56.6406993  65.0714913  28.7124083  55.6486993  64.5534913  27.9204083
  55.9856993  64.6514913  28.6214083  59.1486993  59.7544913  25.4844083
  59.9946993  59.5644913  25.5824083  58.7786993  58.9774913  25.3464083
  59.2186993  59.6114913  25.4784083  53.9696993  61.0924913  22.1394083
  54.4586993  60.8004913  22.8004083  54.0986993  60.4994913  21.5124083
  54.0606993  60.9614913  22.1444083  58.4946993  62.5264913  17.6254083
  57.8846993  62.1214913  18.0994083  58.1086993  62.6444913  16.8524083
  58.3476993  62.4834913  17.5814083  55.3136993  65.6354913  33.0274083
  54.8926993  65.1174913  32.4664083  54.9616993  66.4214913  32.8844083
  55.1996993  65.6754913  32.9234083  59.9496993  60.9874913  20.3354083
  60.2216993  61.8134913  20.4024083  59.0866993  61.0624913  20.2394083
  59.8626993  61.1204913  20.3304083  53.4296993  56.9574913  26.8714083
  53.4736993  57.3014913  26.0704083  54.1846993  57.1944913  27.2384083
  53.5476993  57.0434913  26.8074083  65.3706993  66.2964913  18.3414083
  66.0546993  65.7824913  18.1724083  64.9536993  66.3424913  17.5764083
  65.4096993  66.2274913  18.2034083  60.0526993  67.4464913  29.6454083
  59.7546993  68.0384913  30.2124083  60.1076993  67.8884913  28.8964083
  60.0166993  67.5994913  29.6184083  58.0316993  66.3964913  33.0434083
  57.2256993  66.1064913  33.2104083  57.9426993  67.2644913  33.0494083
  57.8996993  66.4814913  33.0684083  62.5686993  63.8694913  29.1364083
  63.0446993  64.2434913  29.7644083  61.7456993  64.0034913  29.3954083
  62.5176993  63.9444913  29.2674083  59.2786993  59.4724913  31.8774083
  59.4396993  58.7284913  32.3044083  59.2336993  59.2234913  31.0424083
  59.2956993  59.3254913  31.8174083  61.0306993  55.2804913  31.7574083
  61.7356993  55.6004913  31.3554083  61.2716993  54.4734913  31.9844083
  61.1696993  55.2084913  31.7314083  60.0156993  69.4904913  27.7534083
  59.3916993  70.0724913  27.5714083  60.2636993  69.2044913  26.9674083
  59.9596993  69.5344913  27.6104083  64.3246993  66.1244913  34.7424083
  65.0816993  66.4104913  34.4164083  63.7776993  66.1764913  34.0644083
  64.3556993  66.1744913  34.5934083  61.6096993  64.2664913  17.6684083
  60.8046993  64.0894913  17.3834083  61.5766993  65.1174913  17.8604083
  61.4856993  64.3654913  17.6554083  57.5396993  60.3334913  27.8184083
  57.9796993  60.2304913  27.0724083  58.0846993  60.0204913  28.4234083
  57.6846993  60.2724913  27.7974083  65.5556993  59.4354913  33.4104083
  64.9076993  59.9054913  33.7584083  66.1206993  59.3464913  34.0694083
  65.5436993  59.4914913  33.5594083  65.2436993  60.9724913  29.7084083
  65.5456993  61.3924913  30.4114083  65.2796993  60.1324913  29.9404083
  65.2936993  60.9104913  29.8464083  61.0866993  55.3184913  27.8654083
  60.2606993  55.1694913  28.1024083  61.0466993  55.3534913  26.9944083
  60.9586993  55.3014913  27.7714083  62.7276993  66.3584913  32.6534083
  61.9326993  66.2944913  33.0044083  62.7986993  67.2054913  32.4584083
  62.6206993  66.4734913  32.6764083  53.6516993  55.7164913  33.9004083
  53.5116993  56.5114913  33.5694083  52.8656993  55.4734913  34.1894083
  53.5146993  55.7984913  33.8944083  56.7156993  58.4604913  21.1254083
  56.8416993  58.1314913  20.3274083  55.9036993  58.2114913  21.3244083
  56.6146993  58.3754913  21.0374083  65.4726993  65.6134913  24.1694083
  65.5486993  65.9544913  24.9684083  65.6416993  64.7664913  24.2904083
  65.5086993  65.5384913  24.3054083  62.9946993  64.8874913  23.7344083
  62.6966993  64.5724913  24.4914083  63.6896993  65.3604913  23.9694083
  63.0536993  64.9104913  23.8814083  63.2166993  69.0054913  31.7614083
  63.9036993  68.8914913  32.2864083  63.3506993  69.7964913  31.4174083
  63.3376993  69.1054913  31.7884083  63.8396993  63.4694913  35.3354083
  64.1626993  64.1554913  34.9034083  63.1356993  63.7924913  35.7374083
  63.7826993  63.6184913  35.3304083  63.6246993  66.9334913  29.1944083
  62.9306993  67.3354913  29.5374083  64.3016993  67.3664913  29.5334083
  63.6216993  67.0564913  29.2954083  56.6926993  60.4714913  31.5414083
  57.0676993  61.0904913  31.0544083  57.3666993  59.9974913  31.8264083
  56.8476993  60.4934913  31.5114083  54.4676993  58.9194913  30.8164083
  54.5446993  58.7504913  29.9634083  55.2136993  59.3254913  31.0134083
  54.5886993  58.9544913  30.7194083  57.0216993  56.3294913  33.2274083
  56.9406993  55.4854913  33.4334083  56.7076993  56.3734913  32.4144083
  56.9636993  56.2114913  33.1374083  63.9466993  68.5244913  22.3634083
  63.7416993  69.3574913  22.2044083  63.1716993  68.1424913  22.4854083
  63.8016993  68.5914913  22.3584083  53.8646993  64.1454913  31.0404083
  54.1846993  64.3644913  30.2594083  53.7646993  63.2804913  30.9854083
  53.8966993  64.0504913  30.9174083  55.3206993  60.0814913  17.6584083
  54.6486993  60.0954913  18.2144083  55.4156993  59.2334913  17.4744083
  55.2356993  59.9584913  17.7134083  65.0076993  56.5054913  34.3944083
  65.0996993  57.2174913  34.8884083  64.3706993  56.0604913  34.7914083
  64.9266993  56.5444913  34.5264083  64.0016993  56.6954913  25.2484083
  63.3016993  57.2134913  25.1924083  64.0396993  56.3154913  24.4644083
  63.9036993  56.7164913  25.1244083  59.3086993  68.7864913  18.7724083
  59.7496993  68.8664913  19.5204083  58.5036993  68.5704913  19.0304083
  59.2546993  68.7664913  18.9214083  58.6276993  63.4374913  32.4254083
  58.2316993  64.2114913  32.5004083  58.2216993  63.0644913  31.7494083
  58.5096993  63.4964913  32.3364083  56.6376993  67.8564913  19.3734083
  56.3936993  67.5494913  20.1534083  56.6046993  67.1534913  18.8574083
  56.5966993  67.7074913  19.4124083  59.4566993  66.1014913  18.1164083
  58.6386993  65.8334913  18.2564083  59.4286993  66.9534913  18.3014083
  59.3316993  66.1884913  18.1644083  59.0566993  56.4144913  29.8754083
  58.1926993  56.4984913  29.9554083  59.2766993  55.9004913  30.5444083
  58.9616993  56.3514913  29.9864083  63.1596993  57.1624913  28.2494083
  62.4226993  56.7084913  28.3624083  63.7306993  56.7604913  28.7724083
  63.1346993  57.0354913  28.3434083  65.8916993  68.0104913  30.0374083
  66.0976993  68.3114913  30.8294083  65.8306993  68.7324913  29.5524083
  65.9126993  68.1614913  30.0824083  60.6626993  61.4914913  33.4534083
  60.3406993  60.9154913  32.8834083  60.3036993  62.2464913  33.2074083
  60.5626993  61.5174913  33.3334083  61.4586993  54.7434913  18.0804083
  61.5366993  54.9904913  17.2474083  60.7156993  55.1204913  18.3384083
  61.3606993  54.8354913  17.9954083  56.2766993  56.4974913  30.5234083
  55.9336993  55.7304913  30.2894083  55.5816993  57.0214913  30.5874083
  56.1236993  56.4614913  30.4984083  65.3226993  55.3534913  27.5004083
  65.9926993  55.8974913  27.6274083  64.8196993  55.7774913  26.9274083
  65.3476993  55.4964913  27.4344083  64.6816993  61.1614913  24.9934083
  65.2326993  60.5544913  25.2934083  64.2566993  61.4244913  25.7084083
  64.7006993  61.1104913  25.1424083  54.9296993  59.8114913  24.4794083
  54.5616993  60.1134913  25.2104083  55.4636993  59.1824913  24.7634083
  54.9536993  59.7634913  24.6294083  54.6176993  68.2194913  31.9904083
  54.0436993  68.6354913  32.4994083  55.3506993  68.6844913  32.0854083
  54.6416993  68.3494913  32.0794083  60.5706993  63.8834913  20.4934083
  60.6706993  64.0224913  19.6384083  61.3886993  63.8234913  20.7894083
  60.7056993  63.8944913  20.4104083  65.8056993  68.2124913  20.2954083
  65.5546993  68.0844913  21.1214083  65.4886993  67.5174913  19.8744083
  65.7216993  68.0914913  20.3554083  59.7096993  56.8584913  33.6094083
  59.9436993  56.2824913  32.9964083  58.8676993  56.6774913  33.7504083
  59.6196993  56.7464913  33.5394083  62.6916993  66.4204913  19.7254083
  63.4086993  66.0734913  19.3694083  62.6576993  67.2204913  19.3774083
  62.7926993  66.4874913  19.6214083  64.1006993  55.0614913   3.9641673
  63.8556993  55.5494913   3.2841673  64.9636993  54.9884913   3.8641673
  64.1916993  55.1224913   3.8491673  63.9096993  61.9774913   8.6351673
  63.3856993  62.5734913   8.9981673  64.3066993  61.6094913   9.3191673
  63.8906993  62.0114913   8.7901673  53.7786993  66.1174913   4.0911673
  53.3376993  66.2354913   4.8341673  53.4956993  65.3424913   3.8061673
  53.6716993  66.0204913   4.1591673  56.2876993  66.8134913   3.1701673
  56.8956993  66.6434913   3.7731673  55.5366993  66.6734913   3.5911673
  56.2666993  66.7674913   3.3211673  60.5696993  56.1484913   3.1191673
  60.4996993  56.8254913   2.5731673  61.3106993  55.7604913   2.8701673
  60.6686993  56.1914913   3.0011673  53.7186993  68.8524913  10.3461673
  53.8476993  68.5724913  11.1621673  53.1086993  68.3114913  10.0371673
  53.6476993  68.7314913  10.4211673  60.2926993  66.3774913  15.4131673
  60.0566993  66.3744913  16.2531673  59.5446993  66.2294913  14.9891673
  60.1466993  66.3544913  15.4741673  55.1646993  63.3734913   4.5481673
  54.7026993  62.9814913   3.9211673  55.8646993  62.8604913   4.6401673
  55.1996993  63.2404913   4.4691673  59.6726993  58.9834913   9.8951673
  60.3506993  59.0014913   9.3461673  59.6276993  58.1474913  10.1401673
  59.7656993  58.8624913   9.8501673  57.1656993  61.4734913   4.5711673
  57.9826993  61.2864913   4.8141673  56.6886993  60.8594913   4.9671673
  57.2156993  61.3554913   4.6661673  61.3696993  67.4544913   7.1811673
  61.7176993  66.6554913   7.2111673  62.0346993  67.9584913   6.9261673
  61.5196993  67.4104913   7.1481673  61.4266993  66.9034913   3.3921673
  61.7576993  66.2594913   3.8781673  61.6666993  66.6924913   2.5811673
  61.5106993  66.7774913   3.3441673  63.3946993  61.0344913  14.7311673
  62.5466993  60.9354913  14.5531673  63.4236993  61.7794913  15.1851673
  63.2736993  61.1304913  14.7721673  57.7626993  56.5674913   3.8371673
  57.4666993  57.0684913   3.1871673  58.6296993  56.6454913   3.7801673
  57.8466993  56.6534913   3.7331673  60.7416993  55.7094913   6.0601673
  60.8146993  56.5694913   6.1891673  60.7036993  55.6344913   5.1921673
  60.7466993  55.8254913   5.9511673  53.6206993  61.1344913   7.5611673
  53.3646993  61.9654913   7.4861673  52.9566993  60.7514913   7.9781673
  53.4846993  61.2004913   7.6121673  59.3706993  68.6884913   2.9411673
  58.7916993  68.4134913   3.5331673  59.9946993  68.0794913   2.9661673
  59.3776993  68.5584913   3.0321673  56.6496993  55.9514913   8.0521673
  56.1286993  55.3234913   7.7441673  57.2406993  55.5144913   8.5231673
  56.6606993  55.7934913   8.0761673  59.9556993  58.0844913  17.3501673
  60.0726993  57.6304913  16.6141673  60.2436993  58.8824913  17.1471673
  60.0156993  58.1354913  17.2111673  55.6886993  57.6814913  16.3341673
  54.9106993  57.2914913  16.2621673  56.1796993  57.2694913  15.7431673
  55.6456993  57.5624913  16.2361673  55.8936993  68.0014913   6.8921673
  56.3166993  67.6454913   6.2181673  56.2176993  67.5794913   7.5841673
  56.0036993  67.8864913   6.8951673  62.3376993  55.3244913  15.5021673
  62.5156993  54.5154913  15.2271673  62.1946993  55.7654913  14.7631673
  62.3426993  55.2704913  15.3521673  62.9316993  60.2504913   4.2751673
  63.2186993  60.0184913   3.4851673  63.6636993  60.3294913   4.7441673
  63.0816993  60.2274913   4.2281673  53.0366993  58.2294913  13.9201673
  53.0326993  58.8164913  14.5661673  53.6306993  58.5414913  13.3631673
  53.1236993  58.3624913  13.9331673  65.3746993  68.5634913  14.4621673
  65.3406993  68.9454913  15.2461673  66.2286993  68.5214913  14.2911673
  65.4956993  68.6134913  14.5531673  53.9736993  57.8244913   2.8351673
  53.8596993  56.9604913   2.8661673  53.4986993  58.1184913   3.5051673
  53.8866993  57.7404913   2.9381673  61.8756993  58.3404913   5.9931673
  61.9496993  58.9084913   5.3351673  61.9966993  58.8324913   6.7031673
  61.9036993  58.4974913   6.0011673  57.4766993  69.0854913  13.6171673
  58.3176993  69.1484913  13.3951673  57.4396993  69.4824913  14.3931673
  57.5956993  69.1534913  13.6991673  56.4836993  54.1634913   4.3411673
  57.0196993  54.8514913   4.3311673  56.4866993  53.8894913   3.5131673
  56.5626993  54.2244913   4.2171673  59.4396993  64.5964913   8.3661673
  59.6116993  64.3864913   9.1951673  58.7846993  64.0624913   8.1501673
  59.3686993  64.4864913   8.4571673  65.6676993  58.5104913  11.8811673
  65.5726993  58.8294913  12.6871673  65.0746993  57.8714913  11.8431673
  65.5656993  58.4624913  11.9951673  60.1896993  64.5344913  10.9561673
  60.2426993  65.3814913  11.1581673  59.9046993  64.1644913  11.6931673
  60.1556993  64.6044913  11.0941673  66.3666993  65.2294913  10.0861673
  65.8526993  64.8174913  10.6571673  66.2406993  66.0734913  10.2671673
  66.2726993  65.2934913  10.1971673  53.0106993  68.9054913  17.1671673
  53.7666993  69.2544913  17.4251673  53.1876993  68.0524913  17.1101673
  53.1486993  68.8304913  17.1971673  56.9316993  57.9734913   5.9951673
  57.2036993  57.5434913   5.2871673  56.7556993  57.3374913   6.5661673
  56.9456993  57.8164913   5.9751673  56.7556993  65.4004913   5.5441673
  57.6066993  65.3204913   5.3711673  56.3986993  64.7184913   5.1321673
  56.8286993  65.2874913   5.4571673  55.0726993  59.0754913   9.0771673
  55.9156993  59.2954913   9.0341673  54.6836993  59.6484913   8.5461673
  55.1396993  59.1924913   8.9921673  59.1236993  65.4074913   3.7791673
  59.8366993  65.9024913   3.8691673  59.3456993  64.8404913   3.1531673
  59.2616993  65.3964913   3.7001673  53.2796993  67.0504913   7.0991673
  52.6126993  67.5384913   7.3751673  53.9596993  67.5954913   7.1281673
  53.2816993  67.2024913   7.1441673  60.9266993  60.7604913  17.1951673
  60.4426993  61.3374913  17.6371673  60.8986993  61.0554913  16.3741673
  60.8506993  60.8894913  17.1391673  53.3456993  63.7344913   2.2021673
  53.1606993  62.8954913   2.3541673  54.0046993  63.6984913   1.6321673
  53.4156993  63.6054913   2.1401673  63.6466993  69.1104913   6.1061673
  63.1236993  69.7444913   5.8131673  63.9566993  68.7464913   5.3771673
  63.6146993  69.1504913   5.9551673  53.5176993  67.8984913   1.7771673
  54.0696993  68.4674913   2.1411673  53.2856993  67.3834913   2.4421673
  53.5646993  67.9064913   1.9291673  57.7216993  66.8984913   8.8661673
  58.1886993  67.1874913   9.5441673  58.2936993  66.4204913   8.4121673
  57.8756993  66.8704913   8.8991673  54.2876993  64.5684913   7.4101673
  54.7186993  64.4394913   6.6631673  54.0826993  65.4164913   7.3841673
  54.3206993  64.6744913   7.2961673  58.3716993  68.0844913   5.6921673
  58.4976993  68.9274913   5.8791673  59.0396993  67.6854913   6.0881673
  58.4896993  68.1504913   5.7781673  56.5016993  61.5674913  15.5541673
  55.9656993  61.0614913  16.0221673  56.5216993  61.1774913  14.7741673
  56.4246993  61.4344913  15.5081673  57.1536993  62.7944913   7.2931673
  56.3726993  62.7354913   6.9101673  57.2256993  62.0424913   7.7301673
  57.0486993  62.6754913   7.3011673  57.5836993  62.5314913  10.7611673
  57.6086993  61.8564913  10.2101673  56.9376993  63.0274913  10.4491673
  57.4926993  62.5044913  10.6341673  64.1236993  56.1504913  12.5861673
  64.2726993  55.3254913  12.3431673  64.5026993  56.2054913  13.3701673
  64.2016993  56.0364913  12.6661673  65.6716993  58.2134913   2.6681673
  66.1616993  58.9304913   2.5911673  64.8816993  58.4744913   2.4051673
  65.6276993  58.3574913   2.6181673  55.3826993  63.8864913  16.3201673
  55.3456993  64.3874913  15.6061673  55.7136993  63.1344913  16.0251673
  55.4256993  63.8484913  16.1711673  61.2816993  68.9364913  15.7551673
  61.6356993  68.7584913  16.5321673  60.8456993  68.2074913  15.5561673
  61.2696993  68.8024913  15.8411673  62.2536993  59.6834913   8.3931673
  62.7336993  60.3824913   8.6011673  62.6266993  59.0364913   8.8441673
  62.3796993  59.6914913   8.4901673  65.4726993  66.6394913   7.8921673
  64.6756993  66.8634913   8.1661673  65.7306993  66.0454913   8.4771673
  65.3926993  66.5844913   8.0191673  64.4636993  64.4434913  12.3381673
  64.3086993  65.0534913  12.9421673  64.9976993  63.8854913  12.7441673
  64.5196993  64.4514913  12.4871673  53.1546993  55.1624913   2.5391673
  53.2836993  54.4544913   2.0471673  52.7876993  54.8444913   3.2641673
  53.1196993  55.0104913   2.5741673  62.8476993  62.8434913   2.9961673
  62.9066993  63.4934913   3.5751673  62.6586993  62.1474913   3.4871673
  62.8286993  62.8364913   3.1541673  62.0706993  64.8904913   7.4271673
  61.2236993  64.6964913   7.5081673  62.3946993  64.7254913   8.2201673
  61.9926993  64.8374913   7.5561673  55.9186993  64.5834913   9.7431673
  56.6406993  65.0714913   9.7061673  55.6486993  64.5534913   8.9141673
  55.9856993  64.6514913   9.6151673  59.1486993  59.7544913   6.4781673
  59.9946993  59.5644913   6.5761673  58.7786993  58.9774913   6.3401673
  59.2186993  59.6114913   6.4721673  53.9696993  61.0924913   3.1331673
  54.4586993  60.8004913   3.7941673  54.0986993  60.4994913   2.5061673
  54.0606993  60.9614913   3.1381673  55.3136993  65.6354913  14.0211673
  54.8926993  65.1174913  13.4601673  54.9616993  66.4214913  13.8781673
  55.1996993  65.6754913  13.9171673  53.4296993  56.9574913   7.8651673
  53.4736993  57.3014913   7.0641673  54.1846993  57.1944913   8.2321673
  53.5476993  57.0434913   7.8011673  60.0526993  67.4464913  10.6391673
  59.7546993  68.0384913  11.2061673  60.1076993  67.8884913   9.8901673
  60.0166993  67.5994913  10.6121673  58.0316993  66.3964913  14.0371673
  57.2256993  66.1064913  14.2041673  57.9426993  67.2644913  14.0431673
  57.8996993  66.4814913  14.0621673  62.5686993  63.8694913  10.1301673
  63.0446993  64.2434913  10.7581673  61.7456993  64.0034913  10.3891673
  62.5176993  63.9444913  10.2611673  59.2786993  59.4724913  12.8711673
  59.4396993  58.7284913  13.2981673  59.2336993  59.2234913  12.0361673
  59.2956993  59.3254913  12.8111673  61.0306993  55.2804913  12.7511673
  61.7356993  55.6004913  12.3491673  61.2716993  54.4734913  12.9781673
  61.1696993  55.2084913  12.7251673  60.0156993  69.4904913   8.7471673
  59.3916993  70.0724913   8.5651673  60.2636993  69.2044913   7.9611673
  59.9596993  69.5344913   8.6041673  64.3246993  66.1244913  15.7361673
  65.0816993  66.4104913  15.4101673  63.7776993  66.1764913  15.0581673
  64.3556993  66.1744913  15.5871673  57.5396993  60.3334913   8.8121673
  57.9796993  60.2304913   8.0661673  58.0846993  60.0204913   9.4171673
  57.6846993  60.2724913   8.7911673  65.5556993  59.4354913  14.4041673
  64.9076993  59.9054913  14.7521673  66.1206993  59.3464913  15.0631673
  65.5436993  59.4914913  14.5531673  65.2436993  60.9724913  10.7021673
  65.5456993  61.3924913  11.4051673  65.2796993  60.1324913  10.9341673
  65.2936993  60.9104913  10.8401673  61.0866993  55.3184913   8.8591673
  60.2606993  55.1694913   9.0961673  61.0466993  55.3534913   7.9881673
  60.9586993  55.3014913   8.7651673  62.7276993  66.3584913  13.6471673
  61.9326993  66.2944913  13.9981673  62.7986993  67.2054913  13.4521673
  62.6206993  66.4734913  13.6701673  53.6516993  55.7164913  14.8941673
  53.5116993  56.5114913  14.5631673  52.8656993  55.4734913  15.1831673
  53.5146993  55.7984913  14.8881673  65.4726993  65.6134913   5.1631673
  65.5486993  65.9544913   5.9621673  65.6416993  64.7664913   5.2841673
  65.5086993  65.5384913   5.2991673  62.9946993  64.8874913   4.7281673
  62.6966993  64.5724913   5.4851673  63.6896993  65.3604913   4.9631673
  63.0536993  64.9104913   4.8751673  63.2166993  69.0054913  12.7551673
  63.9036993  68.8914913  13.2801673  63.3506993  69.7964913  12.4111673
  63.3376993  69.1054913  12.7821673  63.8396993  63.4694913  16.3291673
  64.1626993  64.1554913  15.8971673  63.1356993  63.7924913  16.7311673
  63.7826993  63.6184913  16.3241673  63.6246993  66.9334913  10.1881673
  62.9306993  67.3354913  10.5311673  64.3016993  67.3664913  10.5271673
  63.6216993  67.0564913  10.2891673  56.6926993  60.4714913  12.5351673
  57.0676993  61.0904913  12.0481673  57.3666993  59.9974913  12.8201673
  56.8476993  60.4934913  12.5051673  54.4676993  58.9194913  11.8101673
  54.5446993  58.7504913  10.9571673  55.2136993  59.3254913  12.0071673
  54.5886993  58.9544913  11.7131673  57.0216993  56.3294913  14.2211673
  56.9406993  55.4854913  14.4271673  56.7076993  56.3734913  13.4081673
  56.9636993  56.2114913  14.1311673  63.9466993  68.5244913   3.3571673
  63.7416993  69.3574913   3.1981673  63.1716993  68.1424913   3.4791673
  63.8016993  68.5914913   3.3521673  53.8646993  64.1454913  12.0341673
  54.1846993  64.3644913  11.2531673  53.7646993  63.2804913  11.9791673
  53.8966993  64.0504913  11.9111673  65.0076993  56.5054913  15.3881673
  65.0996993  57.2174913  15.8821673  64.3706993  56.0604913  15.7851673
  64.9266993  56.5444913  15.5201673  64.0016993  56.6954913   6.2421673
  63.3016993  57.2134913   6.1861673  64.0396993  56.3154913   5.4581673
  63.9036993  56.7164913   6.1181673  58.6276993  63.4374913  13.4191673
  58.2316993  64.2114913  13.4941673  58.2216993  63.0644913  12.7431673
  58.5096993  63.4964913  13.3301673  59.0566993  56.4144913  10.8691673
  58.1926993  56.4984913  10.9491673  59.2766993  55.9004913  11.5381673
  58.9616993  56.3514913  10.9801673  63.1596993  57.1624913   9.2431673
  62.4226993  56.7084913   9.3561673  63.7306993  56.7604913   9.7661673
  63.1346993  57.0354913   9.3371673  65.8916993  68.0104913  11.0311673
  66.0976993  68.3114913  11.8231673  65.8306993  68.7324913  10.5461673
  65.9126993  68.1614913  11.0761673  60.6626993  61.4914913  14.4471673
  60.3406993  60.9154913  13.8771673  60.3036993  62.2464913  14.2011673
  60.5626993  61.5174913  14.3271673  56.2766993  56.4974913  11.5171673
  55.9336993  55.7304913  11.2831673  55.5816993  57.0214913  11.5811673
  56.1236993  56.4614913  11.4921673  65.3226993  55.3534913   8.4941673
  65.9926993  55.8974913   8.6211673  64.8196993  55.7774913   7.9211673
  65.3476993  55.4964913   8.4281673  64.6816993  61.1614913   5.9871673
  65.2326993  60.5544913   6.2871673  64.2566993  61.4244913   6.7021673
  64.7006993  61.1104913   6.1361673  54.9296993  59.8114913   5.4731673
  54.5616993  60.1134913   6.2041673  55.4636993  59.1824913   5.7571673
  54.9536993  59.7634913   5.6231673  54.6176993  68.2194913  12.9841673
  54.0436993  68.6354913  13.4931673  55.3506993  68.6844913  13.0791673
  54.6416993  68.3494913  13.0731673  59.7096993  56.8584913  14.6031673
  59.9436993  56.2824913  13.9901673  58.8676993  56.6774913  14.7441673
  59.6196993  56.7464913  14.5331673  64.1006993  36.5833833  79.9891313
  63.8556993  37.0713833  79.3091313  64.9636993  36.5103833  79.8891313
  64.1916993  36.6443833  79.8741313  63.9096993  43.4993833  84.6601313
  63.3856993  44.0953833  85.0231313  64.3066993  43.1313833  85.3441313
  63.8906993  43.5333833  84.8151313  53.7786993  47.6393833  80.1161313
  53.3376993  47.7573833  80.8591313  53.4956993  46.8643833  79.8311313
  53.6716993  47.5423833  80.1841313  53.5216993  41.4313833  76.6231313
  52.7436993  41.5933833  76.2631313  53.5606993  40.5603833  76.6451313
  53.4126993  41.3263833  76.5731313  56.6606993  46.6943833  75.2951313
  56.2686993  46.3233833  74.6091313  56.5806993  46.0963833  75.9241313
  56.5906993  46.5513833  75.2861313  56.2876993  48.3353833  79.1951313
  56.8956993  48.1653833  79.7981313  55.5366993  48.1953833  79.6161313
  56.2666993  48.2893833  79.3461313  60.5696993  37.6703833  79.1441313
  60.4996993  38.3473833  78.5981313  61.3106993  37.2823833  78.8951313
  60.6686993  37.7133833  79.0261313  55.1786993  51.4263833  75.2721313
  55.6456993  51.5103833  74.5401313  55.6336993  50.8483833  75.7411313
  55.3146993  51.3533833  75.2331313  53.7186993  50.3743833  86.3711313
  53.8476993  50.0943833  87.1871313  53.1086993  49.8333833  86.0621313
  53.6476993  50.2533833  86.4461313  55.1646993  44.8953833  80.5731313
  54.7026993  44.5033833  79.9461313  55.8646993  44.3823833  80.6651313
  55.1996993  44.7623833  80.4941313  59.6726993  40.5053833  85.9201313
  60.3506993  40.5233833  85.3711313  59.6276993  39.6693833  86.1651313
  59.7656993  40.3843833  85.8751313  60.2746993  51.0913833  88.7011313
  60.4126993  51.8513833  88.2941313  61.0656993  50.7263833  88.7281313
  60.4116993  51.1503833  88.6451313  57.1656993  42.9953833  80.5961313
  57.9826993  42.8083833  80.8391313  56.6886993  42.3813833  80.9921313
  57.2156993  42.8773833  80.6911313  61.3696993  48.9763833  83.2061313
  61.7176993  48.1773833  83.2361313  62.0346993  49.4803833  82.9511313
  61.5196993  48.9323833  83.1731313  61.4266993  48.4253833  79.4171313
  61.7576993  47.7813833  79.9031313  61.6666993  48.2143833  78.6061313
  61.5106993  48.2993833  79.3691313  57.7626993  38.0893833  79.8621313
  57.4666993  38.5903833  79.2121313  58.6296993  38.1673833  79.8051313
  57.8466993  38.1753833  79.7581313  60.7416993  37.2313833  82.0851313
  60.8146993  38.0913833  82.2141313  60.7036993  37.1563833  81.2171313
  60.7466993  37.3473833  81.9761313  65.4146993  40.1573833  74.3841313
  64.9646993  40.8383833  74.6911313  65.5286993  39.6533833  75.0871313
  65.3656993  40.1833833  74.5331313  53.6206993  42.6563833  83.5861313
  53.3646993  43.4873833  83.5111313  52.9566993  42.2733833  84.0031313
  53.4846993  42.7223833  83.6371313  53.5306993  52.3663833  81.4861313
  52.9386993  52.9243833  81.1731313  53.9566993  52.0973833  80.7741313
  53.5066993  52.4083833  81.3351313  59.3706993  50.2103833  78.9661313
  58.7916993  49.9353833  79.5581313  59.9946993  49.6013833  78.9911313
  59.3776993  50.0803833  79.0571313  65.5136993  52.4983833  76.4881313
  66.2406993  52.9703833  76.5901313  65.7426993  51.7043833  76.7681313
  65.6556993  52.4513833  76.5451313  63.6816993  52.8903833  78.4781313
  63.8956993  53.4173833  79.1401313  64.4486993  52.7163833  78.0991313
  63.8266993  52.9423833  78.5201313  56.6496993  37.4733833  84.0771313
  56.1286993  36.8453833  83.7691313  57.2406993  37.0363833  84.5481313
  56.6606993  37.3153833  84.1011313  55.0756993  51.0363833  79.4171313
  55.7316993  50.4613833  79.4321313  55.4646993  51.7853833  79.1961313
  55.2306993  51.0613833  79.3871313  55.8936993  49.5233833  82.9171313
  56.3166993  49.1673833  82.2431313  56.2176993  49.1013833  83.6091313
  56.0036993  49.4083833  82.9201313  59.1246993  52.3753833  82.2131313
  59.9686993  52.4793833  82.0181313  58.8276993  53.1933833  82.2811313
  59.2056993  52.5113833  82.1941313  62.9316993  41.7723833  80.3001313
  63.2186993  41.5403833  79.5101313  63.6636993  41.8513833  80.7691313
  63.0816993  41.7493833  80.2531313  63.6536993  42.1113833  75.4211313
  63.9346993  42.8993833  75.6701313  62.8776993  42.2763833  75.0581313
  63.5806993  42.2523833  75.4041313  58.1226993  53.5943833  87.9531313
  58.4146993  53.5273833  88.7731313  57.4966993  52.9893833  87.9081313
  58.0736993  53.4953833  88.0681313  62.5126993  50.2823833  75.2371313
  62.3316993  50.8273833  75.8941313  63.2786993  50.5723833  74.9361313
  62.5986993  50.4063833  75.2901313  53.9736993  39.3463833  78.8601313
  53.8596993  38.4823833  78.8911313  53.4986993  39.6403833  79.5301313
  53.8866993  39.2623833  78.9631313  56.1156993  51.7563833  87.0751313
  55.4176993  51.2483833  87.2011313  56.3756993  51.5513833  86.2671313
  56.0506993  51.6513833  86.9741313  63.2776993  40.5543833  77.6051313
  62.7696993  39.8923833  77.3511313  63.3296993  41.0583833  76.8951313
  63.2106993  40.5313833  77.4631313  63.8266993  53.2493833  87.9851313
  64.5946993  53.1693833  87.5791313  63.2436993  53.1283833  87.3471313
  63.8536993  53.2193833  87.8311313  63.2776993  37.4953833  77.4961313
  62.8226993  37.0933833  76.8701313  64.0506993  37.6503833  77.1211313
  63.3246993  37.4593833  77.3481313  61.8756993  39.8623833  82.0181313
  61.9496993  40.4303833  81.3601313  61.9966993  40.3543833  82.7281313
  61.9036993  40.0193833  82.0261313  56.4836993  35.6853833  80.3661313
  57.0196993  36.3733833  80.3561313  56.4866993  35.4113833  79.5381313
  56.5626993  35.7463833  80.2421313  59.4396993  46.1183833  84.3911313
  59.6116993  45.9083833  85.2201313  58.7846993  45.5843833  84.1751313
  59.3686993  46.0083833  84.4821313  65.6676993  40.0323833  87.9061313
  65.5726993  40.3513833  88.7121313  65.0746993  39.3933833  87.8681313
  65.5656993  39.9843833  88.0201313  60.1896993  46.0563833  86.9811313
  60.2426993  46.9033833  87.1831313  59.9046993  45.6863833  87.7181313
  60.1556993  46.1263833  87.1191313  66.3666993  46.7513833  86.1111313
  65.8526993  46.3393833  86.6821313  66.2406993  47.5953833  86.2921313
  66.2726993  46.8153833  86.2221313  56.9316993  39.4953833  82.0201313
  57.2036993  39.0653833  81.3121313  56.7556993  38.8593833  82.5911313
  56.9456993  39.3383833  82.0001313  56.7556993  46.9223833  81.5691313
  57.6066993  46.8423833  81.3961313  56.3986993  46.2403833  81.1571313
  56.8286993  46.8093833  81.4821313  55.5226993  53.6473833  82.8061313
  54.8496993  53.1493833  82.5611313  55.9256993  53.8323833  82.0551313
  55.4826993  53.6013833  82.6591313  55.0726993  40.5973833  85.1021313
  55.9156993  40.8173833  85.0591313  54.6836993  41.1703833  84.5711313
  55.1396993  40.7143833  85.0171313  59.1236993  46.9293833  79.8041313
  59.8366993  47.4243833  79.8941313  59.3456993  46.3623833  79.1781313
  59.2616993  46.9183833  79.7251313  53.2796993  48.5723833  83.1241313
  52.6126993  49.0603833  83.4001313  53.9596993  49.1173833  83.1531313
  53.2816993  48.7243833  83.1691313  53.3456993  45.2563833  78.2271313
  53.1606993  44.4173833  78.3791313  54.0046993  45.2203833  77.6571313
  53.4156993  45.1273833  78.1651313  63.6466993  50.6323833  82.1311313
  63.1236993  51.2663833  81.8381313  63.9566993  50.2683833  81.4021313
  63.6146993  50.6723833  81.9801313  53.5176993  49.4203833  77.8021313
  54.0696993  49.9893833  78.1661313  53.2856993  48.9053833  78.4671313
  53.5646993  49.4283833  77.9541313  57.7216993  48.4203833  84.8911313
  58.1886993  48.7093833  85.5691313  58.2936993  47.9423833  84.4371313
  57.8756993  48.3923833  84.9241313  53.3476993  47.8693833  75.4301313
  54.1036993  47.4373833  75.4881313  53.3626993  48.4013833  76.1211313
  53.4616993  47.8843833  75.5411313  54.2876993  46.0903833  83.4351313
  54.7186993  45.9613833  82.6881313  54.0826993  46.9383833  83.4091313
  54.3206993  46.1963833  83.3211313  60.6336993  39.6543833  77.0851313
  60.6316993  39.5373833  76.2201313  60.4526993  40.5023833  77.1771313
  60.6066993  39.7623833  76.9711313  58.3716993  49.6063833  81.7171313
  58.4976993  50.4493833  81.9041313  59.0396993  49.2073833  82.1131313
  58.4896993  49.6723833  81.8031313  56.9866993  42.4863833  76.7191313
  56.8586993  42.0383833  77.4571313  56.4046993  42.1443833  76.1671313
  56.8816993  42.3693833  76.7471313  57.1536993  44.3163833  83.3181313
  56.3726993  44.2573833  82.9351313  57.2256993  43.5643833  83.7551313
  57.0486993  44.1973833  83.3261313  57.5836993  44.0533833  86.7861313
  57.6086993  43.3783833  86.2351313  56.9376993  44.5493833  86.4741313
  57.4926993  44.0263833  86.6591313  61.6836993  52.8303833  86.1781313
  61.4066993  52.1893833  85.6551313  61.4756993  53.5563833  85.7401313
  61.6126993  52.8433833  86.0361313  64.1236993  37.6723833  88.6111313
  64.2726993  36.8473833  88.3681313  64.5026993  37.7273833  89.3951313
  64.2016993  37.5583833  88.6911313  65.6716993  39.7353833  78.6931313
  66.1616993  40.4523833  78.6161313  64.8816993  39.9963833  78.4301313
  65.6276993  39.8793833  78.6431313  62.2536993  41.2053833  84.4181313
  62.7336993  41.9043833  84.6261313  62.6266993  40.5583833  84.8691313
  62.3796993  41.2133833  84.5151313  64.4426993  44.3743833  76.6921313
  64.4346993  45.0963833  76.2021313  63.8036993  44.5093833  77.2691313
  64.3476993  44.5013833  76.7051313  65.4596993  51.3103833  84.5171313
  64.8566993  51.0143833  83.9601313  66.0046993  51.7623833  84.0081313
  65.4506993  51.3333833  84.3591313  65.4726993  48.1613833  83.9171313
  64.6756993  48.3853833  84.1911313  65.7306993  47.5673833  84.5021313
  65.3926993  48.1063833  84.0441313  59.3646993  52.9733833  78.3651313
  59.2176993  52.1973833  78.7361313  60.0536993  52.8263833  77.8501313
  59.4446993  52.8363833  78.3441313  59.0356993  36.7163833  76.3531313
  59.1326993  36.6093833  77.2141313  58.3276993  37.2223833  76.2881313
  58.9456993  36.7753833  76.4711313  61.6566993  52.4893833  76.7671313
  62.2786993  52.6523833  77.3571313  61.6926993  53.1803833  76.2351313
  61.7536993  52.6153833  76.7761313  56.1576993  45.0233833  77.5961313
  56.4816993  44.2443833  77.3741313  56.8036993  45.3913833  78.0511313
  56.3006993  44.9623833  77.6301313  64.4636993  45.9653833  88.3631313
  64.3086993  46.5753833  88.9671313  64.9976993  45.4073833  88.7691313
  64.5196993  45.9733833  88.5121313  53.1546993  36.6843833  78.5641313
  53.2836993  35.9763833  78.0721313  52.7876993  36.3663833  79.2891313
  53.1196993  36.5323833  78.5991313  62.8476993  44.3653833  79.0211313
  62.9066993  45.0153833  79.6001313  62.6586993  43.6693833  79.5121313
  62.8286993  44.3583833  79.1791313  57.3436993  38.8823833  75.5331313
  56.8326993  38.9353833  74.8271313  58.1276993  39.1223833  75.2371313
  57.3836993  38.9253833  75.3851313  62.0706993  46.4123833  83.4521313
  61.2236993  46.2183833  83.5331313  62.3946993  46.2473833  84.2451313
  61.9926993  46.3593833  83.5811313  58.8226993  53.1423833  74.3381313
  59.2616993  52.4453833  74.6261313  59.0296993  53.7663833  74.9111313
  58.9186993  53.1313833  74.4651313  55.9186993  46.1053833  85.7681313
  56.6406993  46.5933833  85.7311313  55.6486993  46.0753833  84.9391313
  55.9856993  46.1733833  85.6401313  59.1486993  41.2763833  82.5031313
  59.9946993  41.0863833  82.6011313  58.7786993  40.4993833  82.3651313
  59.2186993  41.1333833  82.4971313  53.9696993  42.6143833  79.1581313
  54.4586993  42.3223833  79.8191313  54.0986993  42.0213833  78.5311313
  54.0606993  42.4833833  79.1631313  58.4946993  44.0483833  74.6441313
  57.8846993  43.6433833  75.1181313  58.1086993  44.1663833  73.8711313
  58.3476993  44.0053833  74.6001313  55.3136993  47.1573833  90.0461313
  54.8926993  46.6393833  89.4851313  54.9616993  47.9433833  89.9031313
  55.1996993  47.1973833  89.9421313  59.9496993  42.5093833  77.3541313
  60.2216993  43.3353833  77.4211313  59.0866993  42.5843833  77.2581313
  59.8626993  42.6423833  77.3491313  53.4296993  38.4793833  83.8901313
  53.4736993  38.8233833  83.0891313  54.1846993  38.7163833  84.2571313
  53.5476993  38.5653833  83.8261313  65.3706993  47.8183833  75.3601313
  66.0546993  47.3043833  75.1911313  64.9536993  47.8643833  74.5951313
  65.4096993  47.7493833  75.2221313  60.0526993  48.9683833  86.6641313
  59.7546993  49.5603833  87.2311313  60.1076993  49.4103833  85.9151313
  60.0166993  49.1213833  86.6371313  62.5686993  45.3913833  86.1551313
  63.0446993  45.7653833  86.7831313  61.7456993  45.5253833  86.4141313
  62.5176993  45.4663833  86.2861313  59.2786993  40.9943833  88.8961313
  59.4396993  40.2503833  89.3231313  59.2336993  40.7453833  88.0611313
  59.2956993  40.8473833  88.8361313  61.8326993  52.7843833  81.3831313
  62.3786993  53.4633833  81.4371313  61.4826993  52.8663833  80.5881313
  61.8616993  52.8973833  81.2731313  61.0306993  36.8023833  88.7761313
  61.7356993  37.1223833  88.3741313  61.2716993  35.9953833  89.0031313
  61.1696993  36.7303833  88.7501313  60.0156993  51.0123833  84.7721313
  59.3916993  51.5943833  84.5901313  60.2636993  50.7263833  83.9861313
  59.9596993  51.0563833  84.6291313  61.6096993  45.7883833  74.6871313
  60.8046993  45.6113833  74.4021313  61.5766993  46.6393833  74.8791313
  61.4856993  45.8873833  74.6741313  57.5396993  41.8553833  84.8371313
  57.9796993  41.7523833  84.0911313  58.0846993  41.5423833  85.4421313
  57.6846993  41.7943833  84.8161313  65.2436993  42.4943833  86.7271313
  65.5456993  42.9143833  87.4301313  65.2796993  41.6543833  86.9591313
  65.2936993  42.4323833  86.8651313  61.0866993  36.8403833  84.8841313
  60.2606993  36.6913833  85.1211313  61.0466993  36.8753833  84.0131313
  60.9586993  36.8233833  84.7901313  62.7276993  47.8803833  89.6721313
  61.9326993  47.8163833  90.0231313  62.7986993  48.7273833  89.4771313
  62.6206993  47.9953833  89.6951313  58.5576993  54.0873833  84.9891313
  58.5686993  54.1463833  85.8591313  58.1326993  53.3403833  84.8391313
  58.4966993  53.9853833  85.0951313  56.7156993  39.9823833  78.1441313
  56.8416993  39.6533833  77.3461313  55.9036993  39.7333833  78.3431313
  56.6146993  39.8973833  78.0561313  65.4726993  47.1353833  81.1881313
  65.5486993  47.4763833  81.9871313  65.6416993  46.2883833  81.3091313
  65.5086993  47.0603833  81.3241313  62.9946993  46.4093833  80.7531313
  62.6966993  46.0943833  81.5101313  63.6896993  46.8823833  80.9881313
  63.0536993  46.4323833  80.9001313  63.2166993  50.5273833  88.7801313
  63.9036993  50.4133833  89.3051313  63.3506993  51.3183833  88.4361313
  63.3376993  50.6273833  88.8071313  63.6246993  48.4553833  86.2131313
  62.9306993  48.8573833  86.5561313  64.3016993  48.8883833  86.5521313
  63.6216993  48.5783833  86.3141313  56.6926993  41.9933833  88.5601313
  57.0676993  42.6123833  88.0731313  57.3666993  41.5193833  88.8451313
  56.8476993  42.0153833  88.5301313  54.4676993  40.4413833  87.8351313
  54.5446993  40.2723833  86.9821313  55.2136993  40.8473833  88.0321313
  54.5886993  40.4763833  87.7381313  63.9466993  50.0463833  79.3821313
  63.7416993  50.8793833  79.2231313  63.1716993  49.6643833  79.5041313
  63.8016993  50.1133833  79.3771313  53.8646993  45.6673833  88.0591313
  54.1846993  45.8863833  87.2781313  53.7646993  44.8023833  88.0041313
  53.8966993  45.5723833  87.9361313  55.3206993  41.6033833  74.6771313
  54.6486993  41.6173833  75.2331313  55.4156993  40.7553833  74.4931313
  55.2356993  41.4803833  74.7321313  64.0016993  38.2173833  82.2671313
  63.3016993  38.7353833  82.2111313  64.0396993  37.8373833  81.4831313
  63.9036993  38.2383833  82.1431313  59.3086993  50.3083833  75.7911313
  59.7496993  50.3883833  76.5391313  58.5036993  50.0923833  76.0491313
  59.2546993  50.2883833  75.9401313  58.6276993  44.9593833  89.4441313
  58.2316993  45.7333833  89.5191313  58.2216993  44.5863833  88.7681313
  58.5096993  45.0183833  89.3551313  56.6376993  49.3783833  76.3921313
  56.3936993  49.0713833  77.1721313  56.6046993  48.6753833  75.8761313
  56.5966993  49.2293833  76.4311313  59.4566993  47.6233833  75.1351313
  58.6386993  47.3553833  75.2751313  59.4286993  48.4753833  75.3201313
  59.3316993  47.7103833  75.1831313  59.0566993  37.9363833  86.8941313
  58.1926993  38.0203833  86.9741313  59.2766993  37.4223833  87.5631313
  58.9616993  37.8733833  87.0051313  63.1596993  38.6843833  85.2681313
  62.4226993  38.2303833  85.3811313  63.7306993  38.2823833  85.7911313
  63.1346993  38.5573833  85.3621313  65.8916993  49.5323833  87.0561313
  66.0976993  49.8333833  87.8481313  65.8306993  50.2543833  86.5711313
  65.9126993  49.6833833  87.1011313  61.4586993  36.2653833  75.0991313
  61.5366993  36.5123833  74.2661313  60.7156993  36.6423833  75.3571313
  61.3606993  36.3573833  75.0141313  56.2766993  38.0193833  87.5421313
  55.9336993  37.2523833  87.3081313  55.5816993  38.5433833  87.6061313
  56.1236993  37.9833833  87.5171313  65.3226993  36.8753833  84.5191313
  65.9926993  37.4193833  84.6461313  64.8196993  37.2993833  83.9461313
  65.3476993  37.0183833  84.4531313  64.6816993  42.6833833  82.0121313
  65.2326993  42.0763833  82.3121313  64.2566993  42.9463833  82.7271313
  64.7006993  42.6323833  82.1611313  54.9296993  41.3333833  81.4981313
  54.5616993  41.6353833  82.2291313  55.4636993  40.7043833  81.7821313
  54.9536993  41.2853833  81.6481313  54.6176993  49.7413833  89.0091313
  54.0436993  50.1573833  89.5181313  55.3506993  50.2063833  89.1041313
  54.6416993  49.8713833  89.0981313  56.4036993  53.0083833  77.7841313
  56.2586993  53.1643833  76.9381313  57.2696993  53.0873833  77.8621313
  56.5106993  53.0433833  77.6711313  60.5706993  45.4053833  77.5121313
  60.6706993  45.5443833  76.6571313  61.3886993  45.3453833  77.8081313
  60.7056993  45.4163833  77.4291313  65.8056993  49.7343833  77.3141313
  65.5546993  49.6063833  78.1401313  65.4886993  49.0393833  76.8931313
  65.7216993  49.6133833  77.3741313  57.0906993  51.8233833  84.2611313
  57.0116993  51.0133833  83.9451313  56.6466993  52.3103833  83.6891313
  57.0136993  51.7753833  84.1301313  62.6916993  47.9423833  76.7441313
  63.4086993  47.5953833  76.3881313  62.6576993  48.7423833  76.3961313
  62.7926993  48.0093833  76.6401313  54.6626993  54.0673833  87.8421313
  55.1556993  54.0113833  88.5601313  54.8506993  53.3343833  87.4071313
  54.7636993  53.9503833  87.8841313  64.1006993  36.5833833  60.9828903
  63.8556993  37.0713833  60.3028903  64.9636993  36.5103833  60.8828903
  64.1916993  36.6443833  60.8678903  63.9096993  43.4993833  65.6538903
  63.3856993  44.0953833  66.0168903  64.3066993  43.1313833  66.3378903
  63.8906993  43.5333833  65.8088903  53.7786993  47.6393833  61.1098903
  53.3376993  47.7573833  61.8528903  53.4956993  46.8643833  60.8248903
  53.6716993  47.5423833  61.1778903  53.5216993  41.4313833  57.6168903
  52.7436993  41.5933833  57.2568903  53.5606993  40.5603833  57.6388903
  53.4126993  41.3263833  57.5668903  56.6606993  46.6943833  56.2888903
  56.2686993  46.3233833  55.6028903  56.5806993  46.0963833  56.9178903
  56.5906993  46.5513833  56.2798903  56.2876993  48.3353833  60.1888903
  56.8956993  48.1653833  60.7918903  55.5366993  48.1953833  60.6098903
  56.2666993  48.2893833  60.3398903  60.5696993  37.6703833  60.1378903
  60.4996993  38.3473833  59.5918903  61.3106993  37.2823833  59.8888903
  60.6686993  37.7133833  60.0198903  55.1786993  51.4263833  56.2658903
  55.6456993  51.5103833  55.5338903  55.6336993  50.8483833  56.7348903
  55.3146993  51.3533833  56.2268903  53.7186993  50.3743833  67.3648903
  53.8476993  50.0943833  68.1808903  53.1086993  49.8333833  67.0558903
  53.6476993  50.2533833  67.4398903  60.2926993  47.8993833  72.4318903
  60.0566993  47.8963833  73.2718903  59.5446993  47.7513833  72.0078903
  60.1466993  47.8763833  72.4928903  55.1646993  44.8953833  61.5668903
  54.7026993  44.5033833  60.9398903  55.8646993  44.3823833  61.6588903
  55.1996993  44.7623833  61.4878903  59.6726993  40.5053833  66.9138903
  60.3506993  40.5233833  66.3648903  59.6276993  39.6693833  67.1588903
  59.7656993  40.3843833  66.8688903  60.2746993  51.0913833  69.6948903
  60.4126993  51.8513833  69.2878903  61.0656993  50.7263833  69.7218903
  60.4116993  51.1503833  69.6388903  57.1656993  42.9953833  61.5898903
  57.9826993  42.8083833  61.8328903  56.6886993  42.3813833  61.9858903
  57.2156993  42.8773833  61.6848903  61.3696993  48.9763833  64.1998903
  61.7176993  48.1773833  64.2298903  62.0346993  49.4803833  63.9448903
  61.5196993  48.9323833  64.1668903  61.4266993  48.4253833  60.4108903
  61.7576993  47.7813833  60.8968903  61.6666993  48.2143833  59.5998903
  61.5106993  48.2993833  60.3628903  63.3946993  42.5563833  71.7498903
  62.5466993  42.4573833  71.5718903  63.4236993  43.3013833  72.2038903
  63.2736993  42.6523833  71.7908903  57.7626993  38.0893833  60.8558903
  57.4666993  38.5903833  60.2058903  58.6296993  38.1673833  60.7988903
  57.8466993  38.1753833  60.7518903  60.7416993  37.2313833  63.0788903
  60.8146993  38.0913833  63.2078903  60.7036993  37.1563833  62.2108903
  60.7466993  37.3473833  62.9698903  65.4146993  40.1573833  55.3778903
  64.9646993  40.8383833  55.6848903  65.5286993  39.6533833  56.0808903
  65.3656993  40.1833833  55.5268903  53.6206993  42.6563833  64.5798903
  53.3646993  43.4873833  64.5048903  52.9566993  42.2733833  64.9968903
  53.4846993  42.7223833  64.6308903  53.5306993  52.3663833  62.4798903
  52.9386993  52.9243833  62.1668903  53.9566993  52.0973833  61.7678903
  53.5066993  52.4083833  62.3288903  59.3706993  50.2103833  59.9598903
  58.7916993  49.9353833  60.5518903  59.9946993  49.6013833  59.9848903
  59.3776993  50.0803833  60.0508903  65.5136993  52.4983833  57.4818903
  66.2406993  52.9703833  57.5838903  65.7426993  51.7043833  57.7618903
  65.6556993  52.4513833  57.5388903  63.6816993  52.8903833  59.4718903
  63.8956993  53.4173833  60.1338903  64.4486993  52.7163833  59.0928903
  63.8266993  52.9423833  59.5138903  56.6496993  37.4733833  65.0708903
  56.1286993  36.8453833  64.7628903  57.2406993  37.0363833  65.5418903
  56.6606993  37.3153833  65.0948903  59.9556993  39.6063833  74.3688903
  60.0726993  39.1523833  73.6328903  60.2436993  40.4043833  74.1658903
  60.0156993  39.6573833  74.2298903  55.0756993  51.0363833  60.4108903
  55.7316993  50.4613833  60.4258903  55.4646993  51.7853833  60.1898903
  55.2306993  51.0613833  60.3808903  55.6886993  39.2033833  73.3528903
  54.9106993  38.8133833  73.2808903  56.1796993  38.7913833  72.7618903
  55.6456993  39.0843833  73.2548903  55.8936993  49.5233833  63.9108903
  56.3166993  49.1673833  63.2368903  56.2176993  49.1013833  64.6028903
  56.0036993  49.4083833  63.9138903  59.1246993  52.3753833  63.2068903
  59.9686993  52.4793833  63.0118903  58.8276993  53.1933833  63.2748903
  59.2056993  52.5113833  63.1878903  62.3376993  36.8463833  72.5208903
  62.5156993  36.0373833  72.2458903  62.1946993  37.2873833  71.7818903
  62.3426993  36.7923833  72.3708903  62.9316993  41.7723833  61.2938903
  63.2186993  41.5403833  60.5038903  63.6636993  41.8513833  61.7628903
  63.0816993  41.7493833  61.2468903  63.6536993  42.1113833  56.4148903
  63.9346993  42.8993833  56.6638903  62.8776993  42.2763833  56.0518903
  63.5806993  42.2523833  56.3978903  58.1226993  53.5943833  68.9468903
  58.4146993  53.5273833  69.7668903  57.4966993  52.9893833  68.9018903
  58.0736993  53.4953833  69.0618903  65.3746993  50.0853833  71.4808903
  65.3406993  50.4673833  72.2648903  66.2286993  50.0433833  71.3098903
  65.4956993  50.1353833  71.5718903  62.5126993  50.2823833  56.2308903
  62.3316993  50.8273833  56.8878903  63.2786993  50.5723833  55.9298903
  62.5986993  50.4063833  56.2838903  53.9736993  39.3463833  59.8538903
  53.8596993  38.4823833  59.8848903  53.4986993  39.6403833  60.5238903
  53.8866993  39.2623833  59.9568903  56.1156993  51.7563833  68.0688903
  55.4176993  51.2483833  68.1948903  56.3756993  51.5513833  67.2608903
  56.0506993  51.6513833  67.9678903  63.2776993  40.5543833  58.5988903
  62.7696993  39.8923833  58.3448903  63.3296993  41.0583833  57.8888903
  63.2106993  40.5313833  58.4568903  63.8266993  53.2493833  68.9788903
  64.5946993  53.1693833  68.5728903  63.2436993  53.1283833  68.3408903
  63.8536993  53.2193833  68.8248903  63.2776993  37.4953833  58.4898903
  62.8226993  37.0933833  57.8638903  64.0506993  37.6503833  58.1148903
  63.3246993  37.4593833  58.3418903  61.8756993  39.8623833  63.0118903
  61.9496993  40.4303833  62.3538903  61.9966993  40.3543833  63.7218903
  61.9036993  40.0193833  63.0198903  57.4766993  50.6073833  70.6358903
  58.3176993  50.6703833  70.4138903  57.4396993  51.0043833  71.4118903
  57.5956993  50.6753833  70.7178903  56.4836993  35.6853833  61.3598903
  57.0196993  36.3733833  61.3498903  56.4866993  35.4113833  60.5318903
  56.5626993  35.7463833  61.2358903  59.4396993  46.1183833  65.3848903
  59.6116993  45.9083833  66.2138903  58.7846993  45.5843833  65.1688903
  59.3686993  46.0083833  65.4758903  65.6676993  40.0323833  68.8998903
  65.5726993  40.3513833  69.7058903  65.0746993  39.3933833  68.8618903
  65.5656993  39.9843833  69.0138903  60.1896993  46.0563833  67.9748903
  60.2426993  46.9033833  68.1768903  59.9046993  45.6863833  68.7118903
  60.1556993  46.1263833  68.1128903  66.3666993  46.7513833  67.1048903
  65.8526993  46.3393833  67.6758903  66.2406993  47.5953833  67.2858903
  66.2726993  46.8153833  67.2158903  53.0106993  50.4273833  74.1858903
  53.7666993  50.7763833  74.4438903  53.1876993  49.5743833  74.1288903
  53.1486993  50.3523833  74.2158903  56.9316993  39.4953833  63.0138903
  57.2036993  39.0653833  62.3058903  56.7556993  38.8593833  63.5848903
  56.9456993  39.3383833  62.9938903  56.7556993  46.9223833  62.5628903
  57.6066993  46.8423833  62.3898903  56.3986993  46.2403833  62.1508903
  56.8286993  46.8093833  62.4758903  55.5226993  53.6473833  63.7998903
  54.8496993  53.1493833  63.5548903  55.9256993  53.8323833  63.0488903
  55.4826993  53.6013833  63.6528903  55.0726993  40.5973833  66.0958903
  55.9156993  40.8173833  66.0528903  54.6836993  41.1703833  65.5648903
  55.1396993  40.7143833  66.0108903  59.1236993  46.9293833  60.7978903
  59.8366993  47.4243833  60.8878903  59.3456993  46.3623833  60.1718903
  59.2616993  46.9183833  60.7188903  53.2796993  48.5723833  64.1178903
  52.6126993  49.0603833  64.3938903  53.9596993  49.1173833  64.1468903
  53.2816993  48.7243833  64.1628903  60.9266993  42.2823833  74.2138903
  60.4426993  42.8593833  74.6558903  60.8986993  42.5773833  73.3928903
  60.8506993  42.4113833  74.1578903  53.3456993  45.2563833  59.2208903
  53.1606993  44.4173833  59.3728903  54.0046993  45.2203833  58.6508903
  53.4156993  45.1273833  59.1588903  63.6466993  50.6323833  63.1248903
  63.1236993  51.2663833  62.8318903  63.9566993  50.2683833  62.3958903
  63.6146993  50.6723833  62.9738903  53.5176993  49.4203833  58.7958903
  54.0696993  49.9893833  59.1598903  53.2856993  48.9053833  59.4608903
  53.5646993  49.4283833  58.9478903  57.7216993  48.4203833  65.8848903
  58.1886993  48.7093833  66.5628903  58.2936993  47.9423833  65.4308903
  57.8756993  48.3923833  65.9178903  53.3476993  47.8693833  56.4238903
  54.1036993  47.4373833  56.4818903  53.3626993  48.4013833  57.1148903
  53.4616993  47.8843833  56.5348903  54.2876993  46.0903833  64.4288903
  54.7186993  45.9613833  63.6818903  54.0826993  46.9383833  64.4028903
  54.3206993  46.1963833  64.3148903  60.6336993  39.6543833  58.0788903
  60.6316993  39.5373833  57.2138903  60.4526993  40.5023833  58.1708903
  60.6066993  39.7623833  57.9648903  58.3716993  49.6063833  62.7108903
  58.4976993  50.4493833  62.8978903  59.0396993  49.2073833  63.1068903
  58.4896993  49.6723833  62.7968903  56.5016993  43.0893833  72.5728903
  55.9656993  42.5833833  73.0408903  56.5216993  42.6993833  71.7928903
  56.4246993  42.9563833  72.5268903  56.9866993  42.4863833  57.7128903
  56.8586993  42.0383833  58.4508903  56.4046993  42.1443833  57.1608903
  56.8816993  42.3693833  57.7408903  57.1536993  44.3163833  64.3118903
  56.3726993  44.2573833  63.9288903  57.2256993  43.5643833  64.7488903
  57.0486993  44.1973833  64.3198903  57.5836993  44.0533833  67.7798903
  57.6086993  43.3783833  67.2288903  56.9376993  44.5493833  67.4678903
  57.4926993  44.0263833  67.6528903  61.6836993  52.8303833  67.1718903
  61.4066993  52.1893833  66.6488903  61.4756993  53.5563833  66.7338903
  61.6126993  52.8433833  67.0298903  64.1236993  37.6723833  69.6048903
  64.2726993  36.8473833  69.3618903  64.5026993  37.7273833  70.3888903
  64.2016993  37.5583833  69.6848903  65.6716993  39.7353833  59.6868903
  66.1616993  40.4523833  59.6098903  64.8816993  39.9963833  59.4238903
  65.6276993  39.8793833  59.6368903  55.3826993  45.4083833  73.3388903
  55.3456993  45.9093833  72.6248903  55.7136993  44.6563833  73.0438903
  55.4256993  45.3703833  73.1898903  61.2816993  50.4583833  72.7738903
  61.6356993  50.2803833  73.5508903  60.8456993  49.7293833  72.5748903
  61.2696993  50.3243833  72.8598903  62.2536993  41.2053833  65.4118903
  62.7336993  41.9043833  65.6198903  62.6266993  40.5583833  65.8628903
  62.3796993  41.2133833  65.5088903  64.4426993  44.3743833  57.6858903
  64.4346993  45.0963833  57.1958903  63.8036993  44.5093833  58.2628903
  64.3476993  44.5013833  57.6988903  65.4596993  51.3103833  65.5108903
  64.8566993  51.0143833  64.9538903  66.0046993  51.7623833  65.0018903
  65.4506993  51.3333833  65.3528903  65.4726993  48.1613833  64.9108903
  64.6756993  48.3853833  65.1848903  65.7306993  47.5673833  65.4958903
  65.3926993  48.1063833  65.0378903  59.3646993  52.9733833  59.3588903
  59.2176993  52.1973833  59.7298903  60.0536993  52.8263833  58.8438903
  59.4446993  52.8363833  59.3378903  59.0356993  36.7163833  57.3468903
  59.1326993  36.6093833  58.2078903  58.3276993  37.2223833  57.2818903
  58.9456993  36.7753833  57.4648903  61.6566993  52.4893833  57.7608903
  62.2786993  52.6523833  58.3508903  61.6926993  53.1803833  57.2288903
  61.7536993  52.6153833  57.7698903  64.9236993  51.5083833  74.0338903
  65.0876993  51.7913833  74.8428903  65.1866993  52.1693833  73.5288903
  64.9866993  51.6483833  74.0788903  56.1576993  45.0233833  58.5898903
  56.4816993  44.2443833  58.3678903  56.8036993  45.3913833  59.0448903
  56.3006993  44.9623833  58.6238903  64.4636993  45.9653833  69.3568903
  64.3086993  46.5753833  69.9608903  64.9976993  45.4073833  69.7628903
  64.5196993  45.9733833  69.5058903  53.1546993  36.6843833  59.5578903
  53.2836993  35.9763833  59.0658903  52.7876993  36.3663833  60.2828903
  53.1196993  36.5323833  59.5928903  62.8476993  44.3653833  60.0148903
  62.9066993  45.0153833  60.5938903  62.6586993  43.6693833  60.5058903
  62.8286993  44.3583833  60.1728903  57.3436993  38.8823833  56.5268903
  56.8326993  38.9353833  55.8208903  58.1276993  39.1223833  56.2308903
  57.3836993  38.9253833  56.3788903  62.0706993  46.4123833  64.4458903
  61.2236993  46.2183833  64.5268903  62.3946993  46.2473833  65.2388903
  61.9926993  46.3593833  64.5748903  58.8226993  53.1423833  55.3318903
  59.2616993  52.4453833  55.6198903  59.0296993  53.7663833  55.9048903
  58.9186993  53.1313833  55.4588903  55.9186993  46.1053833  66.7618903
  56.6406993  46.5933833  66.7248903  55.6486993  46.0753833  65.9328903
  55.9856993  46.1733833  66.6338903  59.1486993  41.2763833  63.4968903
  59.9946993  41.0863833  63.5948903  58.7786993  40.4993833  63.3588903
  59.2186993  41.1333833  63.4908903  53.9696993  42.6143833  60.1518903
  54.4586993  42.3223833  60.8128903  54.0986993  42.0213833  59.5248903
  54.0606993  42.4833833  60.1568903  58.4946993  44.0483833  55.6378903
  57.8846993  43.6433833  56.1118903  58.1086993  44.1663833  54.8648903
  58.3476993  44.0053833  55.5938903  55.3136993  47.1573833  71.0398903
  54.8926993  46.6393833  70.4788903  54.9616993  47.9433833  70.8968903
  55.1996993  47.1973833  70.9358903  59.9496993  42.5093833  58.3478903
  60.2216993  43.3353833  58.4148903  59.0866993  42.5843833  58.2518903
  59.8626993  42.6423833  58.3428903  53.4296993  38.4793833  64.8838903
  53.4736993  38.8233833  64.0828903  54.1846993  38.7163833  65.2508903
  53.5476993  38.5653833  64.8198903  65.3706993  47.8183833  56.3538903
  66.0546993  47.3043833  56.1848903  64.9536993  47.8643833  55.5888903
  65.4096993  47.7493833  56.2158903  60.0526993  48.9683833  67.6578903
  59.7546993  49.5603833  68.2248903  60.1076993  49.4103833  66.9088903
  60.0166993  49.1213833  67.6308903  58.0316993  47.9183833  71.0558903
  57.2256993  47.6283833  71.2228903  57.9426993  48.7863833  71.0618903
  57.8996993  48.0033833  71.0808903  62.5686993  45.3913833  67.1488903
  63.0446993  45.7653833  67.7768903  61.7456993  45.5253833  67.4078903
  62.5176993  45.4663833  67.2798903  59.2786993  40.9943833  69.8898903
  59.4396993  40.2503833  70.3168903  59.2336993  40.7453833  69.0548903
  59.2956993  40.8473833  69.8298903  61.8326993  52.7843833  62.3768903
  62.3786993  53.4633833  62.4308903  61.4826993  52.8663833  61.5818903
  61.8616993  52.8973833  62.2668903  61.0306993  36.8023833  69.7698903
  61.7356993  37.1223833  69.3678903  61.2716993  35.9953833  69.9968903
  61.1696993  36.7303833  69.7438903  60.0156993  51.0123833  65.7658903
  59.3916993  51.5943833  65.5838903  60.2636993  50.7263833  64.9798903
  59.9596993  51.0563833  65.6228903  64.3246993  47.6463833  72.7548903
  65.0816993  47.9323833  72.4288903  63.7776993  47.6983833  72.0768903
  64.3556993  47.6963833  72.6058903  61.6096993  45.7883833  55.6808903
  60.8046993  45.6113833  55.3958903  61.5766993  46.6393833  55.8728903
  61.4856993  45.8873833  55.6678903  57.5396993  41.8553833  65.8308903
  57.9796993  41.7523833  65.0848903  58.0846993  41.5423833  66.4358903
  57.6846993  41.7943833  65.8098903  65.5556993  40.9573833  71.4228903
  64.9076993  41.4273833  71.7708903  66.1206993  40.8683833  72.0818903
  65.5436993  41.0133833  71.5718903  65.2436993  42.4943833  67.7208903
  65.5456993  42.9143833  68.4238903  65.2796993  41.6543833  67.9528903
  65.2936993  42.4323833  67.8588903  62.6686993  52.6613833  71.6458903
  63.1466993  52.0613833  71.2298903  62.3176993  52.2183833  72.3108903
  62.6876993  52.5073833  71.6828903  61.0866993  36.8403833  65.8778903
  60.2606993  36.6913833  66.1148903  61.0466993  36.8753833  65.0068903
  60.9586993  36.8233833  65.7838903  62.7276993  47.8803833  70.6658903
  61.9326993  47.8163833  71.0168903  62.7986993  48.7273833  70.4708903
  62.6206993  47.9953833  70.6888903  53.6516993  37.2383833  71.9128903
  53.5116993  38.0333833  71.5818903  52.8656993  36.9953833  72.2018903
  53.5146993  37.3203833  71.9068903  58.5576993  54.0873833  65.9828903
  58.5686993  54.1463833  66.8528903  58.1326993  53.3403833  65.8328903
  58.4966993  53.9853833  66.0888903  56.7156993  39.9823833  59.1378903
  56.8416993  39.6533833  58.3398903  55.9036993  39.7333833  59.3368903
  56.6146993  39.8973833  59.0498903  65.4726993  47.1353833  62.1818903
  65.5486993  47.4763833  62.9808903  65.6416993  46.2883833  62.3028903
  65.5086993  47.0603833  62.3178903  62.9946993  46.4093833  61.7468903
  62.6966993  46.0943833  62.5038903  63.6896993  46.8823833  61.9818903
  63.0536993  46.4323833  61.8938903  63.2166993  50.5273833  69.7738903
  63.9036993  50.4133833  70.2988903  63.3506993  51.3183833  69.4298903
  63.3376993  50.6273833  69.8008903  55.3216993  53.5853833  71.4248903
  54.6676993  53.0163833  71.5228903  54.9466993  54.3583833  71.5758903
  55.1696993  53.6153833  71.4618903  63.8396993  44.9913833  73.3478903
  64.1626993  45.6773833  72.9158903  63.1356993  45.3143833  73.7498903
  63.7826993  45.1403833  73.3428903  63.6246993  48.4553833  67.2068903
  62.9306993  48.8573833  67.5498903  64.3016993  48.8883833  67.5458903
  63.6216993  48.5783833  67.3078903  56.6926993  41.9933833  69.5538903
  57.0676993  42.6123833  69.0668903  57.3666993  41.5193833  69.8388903
  56.8476993  42.0153833  69.5238903  54.4676993  40.4413833  68.8288903
  54.5446993  40.2723833  67.9758903  55.2136993  40.8473833  69.0258903
  54.5886993  40.4763833  68.7318903  57.0216993  37.8513833  71.2398903
  56.9406993  37.0073833  71.4458903  56.7076993  37.8953833  70.4268903
  56.9636993  37.7333833  71.1498903  63.9466993  50.0463833  60.3758903
  63.7416993  50.8793833  60.2168903  63.1716993  49.6643833  60.4978903
  63.8016993  50.1133833  60.3708903  53.8646993  45.6673833  69.0528903
  54.1846993  45.8863833  68.2718903  53.7646993  44.8023833  68.9978903
  53.8966993  45.5723833  68.9298903  55.3206993  41.6033833  55.6708903
  54.6486993  41.6173833  56.2268903  55.4156993  40.7553833  55.4868903
  55.2356993  41.4803833  55.7258903  65.0076993  38.0273833  72.4068903
  65.0996993  38.7393833  72.9008903  64.3706993  37.5823833  72.8038903
  64.9266993  38.0663833  72.5388903  64.0016993  38.2173833  63.2608903
  63.3016993  38.7353833  63.2048903  64.0396993  37.8373833  62.4768903
  63.9036993  38.2383833  63.1368903  59.3086993  50.3083833  56.7848903
  59.7496993  50.3883833  57.5328903  58.5036993  50.0923833  57.0428903
  59.2546993  50.2883833  56.9338903  58.6276993  44.9593833  70.4378903
  58.2316993  45.7333833  70.5128903  58.2216993  44.5863833  69.7618903
  58.5096993  45.0183833  70.3488903  56.6376993  49.3783833  57.3858903
  56.3936993  49.0713833  58.1658903  56.6046993  48.6753833  56.8698903
  56.5966993  49.2293833  57.4248903  59.4566993  47.6233833  56.1288903
  58.6386993  47.3553833  56.2688903  59.4286993  48.4753833  56.3138903
  59.3316993  47.7103833  56.1768903  59.0566993  37.9363833  67.8878903
  58.1926993  38.0203833  67.9678903  59.2766993  37.4223833  68.5568903
  58.9616993  37.8733833  67.9988903  63.1596993  38.6843833  66.2618903
  62.4226993  38.2303833  66.3748903  63.7306993  38.2823833  66.7848903
  63.1346993  38.5573833  66.3558903  65.8916993  49.5323833  68.0498903
  66.0976993  49.8333833  68.8418903  65.8306993  50.2543833  67.5648903
  65.9126993  49.6833833  68.0948903  65.4256993  53.7463833  72.2958903
  64.6726993  53.7283833  71.8548903  65.5936993  54.5983833  72.3798903
  65.3396993  53.8693833  72.2428903  60.6626993  43.0133833  71.4658903
  60.3406993  42.4373833  70.8958903  60.3036993  43.7683833  71.2198903
  60.5626993  43.0393833  71.3458903  61.4586993  36.2653833  56.0928903
  61.5366993  36.5123833  55.2598903  60.7156993  36.6423833  56.3508903
  61.3606993  36.3573833  56.0078903  59.0976993  53.3693833  71.7138903
  59.1386993  53.4953833  72.5768903  59.7486993  52.8093833  71.5578903
  59.1996993  53.3053833  71.8188903  56.2766993  38.0193833  68.5358903
  55.9336993  37.2523833  68.3018903  55.5816993  38.5433833  68.5998903
  56.1236993  37.9833833  68.5108903  65.3226993  36.8753833  65.5128903
  65.9926993  37.4193833  65.6398903  64.8196993  37.2993833  64.9398903
  65.3476993  37.0183833  65.4468903  56.6906993  51.7523833  73.0738903
  57.2856993  52.1833833  73.5458903  56.3266993  52.3763833  72.5848903
  56.7246993  51.9083833  73.0708903  64.6816993  42.6833833  63.0058903
  65.2326993  42.0763833  63.3058903  64.2566993  42.9463833  63.7208903
  64.7006993  42.6323833  63.1548903  54.9296993  41.3333833  62.4918903
  54.5616993  41.6353833  63.2228903  55.4636993  40.7043833  62.7758903
  54.9536993  41.2853833  62.6418903  54.6176993  49.7413833  70.0028903
  54.0436993  50.1573833  70.5118903  55.3506993  50.2063833  70.0978903
  54.6416993  49.8713833  70.0918903  56.4036993  53.0083833  58.7778903
  56.2586993  53.1643833  57.9318903  57.2696993  53.0873833  58.8558903
  56.5106993  53.0433833  58.6648903  60.5706993  45.4053833  58.5058903
  60.6706993  45.5443833  57.6508903  61.3886993  45.3453833  58.8018903
  60.7056993  45.4163833  58.4228903  65.8056993  49.7343833  58.3078903
  65.5546993  49.6063833  59.1338903  65.4886993  49.0393833  57.8868903
  65.7216993  49.6133833  58.3678903  59.7096993  38.3803833  71.6218903
  59.9436993  37.8043833  71.0088903  58.8676993  38.1993833  71.7628903
  59.6196993  38.2683833  71.5518903  57.0906993  51.8233833  65.2548903
  57.0116993  51.0133833  64.9388903  56.6466993  52.3103833  64.6828903
  57.0136993  51.7753833  65.1238903  62.6916993  47.9423833  57.7378903
  63.4086993  47.5953833  57.3818903  62.6576993  48.7423833  57.3898903
  62.7926993  48.0093833  57.6338903  54.6626993  54.0673833  68.8358903
  55.1556993  54.0113833  69.5538903  54.8506993  53.3343833  68.4008903
  54.7636993  53.9503833  68.8778903  64.1006993  36.5833833  41.9766493
  63.8556993  37.0713833  41.2966493  64.9636993  36.5103833  41.8766493
  64.1916993  36.6443833  41.8616493  63.9096993  43.4993833  46.6476493
  63.3856993  44.0953833  47.0106493  64.3066993  43.1313833  47.3316493
  63.8906993  43.5333833  46.8026493  53.7786993  47.6393833  42.1036493
  53.3376993  47.7573833  42.8466493  53.4956993  46.8643833  41.8186493
  53.6716993  47.5423833  42.1716493  53.5216993  41.4313833  38.6106493
  52.7436993  41.5933833  38.2506493  53.5606993  40.5603833  38.6326493
  53.4126993  41.3263833  38.5606493  56.6606993  46.6943833  37.2826493
  56.2686993  46.3233833  36.5966493  56.5806993  46.0963833  37.9116493
  56.5906993  46.5513833  37.2736493  56.2876993  48.3353833  41.1826493
  56.8956993  48.1653833  41.7856493  55.5366993  48.1953833  41.6036493
  56.2666993  48.2893833  41.3336493  60.5696993  37.6703833  41.1316493
  60.4996993  38.3473833  40.5856493  61.3106993  37.2823833  40.8826493
  60.6686993  37.7133833  41.0136493  55.1786993  51.4263833  37.2596493
  55.6456993  51.5103833  36.5276493  55.6336993  50.8483833  37.7286493
  55.3146993  51.3533833  37.2206493  53.7186993  50.3743833  48.3586493
  53.8476993  50.0943833  49.1746493  53.1086993  49.8333833  48.0496493
  53.6476993  50.2533833  48.4336493  60.2926993  47.8993833  53.4256493
  60.0566993  47.8963833  54.2656493  59.5446993  47.7513833  53.0016493
  60.1466993  47.8763833  53.4866493  55.1646993  44.8953833  42.5606493
  54.7026993  44.5033833  41.9336493  55.8646993  44.3823833  42.6526493
  55.1996993  44.7623833  42.4816493  59.6726993  40.5053833  47.9076493
  60.3506993  40.5233833  47.3586493  59.6276993  39.6693833  48.1526493
  59.7656993  40.3843833  47.8626493  60.2746993  51.0913833  50.6886493
  60.4126993  51.8513833  50.2816493  61.0656993  50.7263833  50.7156493
  60.4116993  51.1503833  50.6326493  57.1656993  42.9953833  42.5836493
  57.9826993  42.8083833  42.8266493  56.6886993  42.3813833  42.9796493
  57.2156993  42.8773833  42.6786493  61.3696993  48.9763833  45.1936493
  61.7176993  48.1773833  45.2236493  62.0346993  49.4803833  44.9386493
  61.5196993  48.9323833  45.1606493  61.4266993  48.4253833  41.4046493
  61.7576993  47.7813833  41.8906493  61.6666993  48.2143833  40.5936493
  61.5106993  48.2993833  41.3566493  63.3946993  42.5563833  52.7436493
  62.5466993  42.4573833  52.5656493  63.4236993  43.3013833  53.1976493
  63.2736993  42.6523833  52.7846493  57.7626993  38.0893833  41.8496493
  57.4666993  38.5903833  41.1996493  58.6296993  38.1673833  41.7926493
  57.8466993  38.1753833  41.7456493  60.7416993  37.2313833  44.0726493
  60.8146993  38.0913833  44.2016493  60.7036993  37.1563833  43.2046493
  60.7466993  37.3473833  43.9636493  65.4146993  40.1573833  36.3716493
  64.9646993  40.8383833  36.6786493  65.5286993  39.6533833  37.0746493
  65.3656993  40.1833833  36.5206493  53.6206993  42.6563833  45.5736493
  53.3646993  43.4873833  45.4986493  52.9566993  42.2733833  45.9906493
  53.4846993  42.7223833  45.6246493  53.5306993  52.3663833  43.4736493
  52.9386993  52.9243833  43.1606493  53.9566993  52.0973833  42.7616493
  53.5066993  52.4083833  43.3226493  59.3706993  50.2103833  40.9536493
  58.7916993  49.9353833  41.5456493  59.9946993  49.6013833  40.9786493
  59.3776993  50.0803833  41.0446493  65.5136993  52.4983833  38.4756493
  66.2406993  52.9703833  38.5776493  65.7426993  51.7043833  38.7556493
  65.6556993  52.4513833  38.5326493  63.6816993  52.8903833  40.4656493
  63.8956993  53.4173833  41.1276493  64.4486993  52.7163833  40.0866493
  63.8266993  52.9423833  40.5076493  56.6496993  37.4733833  46.0646493
  56.1286993  36.8453833  45.7566493  57.2406993  37.0363833  46.5356493
  56.6606993  37.3153833  46.0886493  59.9556993  39.6063833  55.3626493
  60.0726993  39.1523833  54.6266493  60.2436993  40.4043833  55.1596493
  60.0156993  39.6573833  55.2236493  55.0756993  51.0363833  41.4046493
  55.7316993  50.4613833  41.4196493  55.4646993  51.7853833  41.1836493
  55.2306993  51.0613833  41.3746493  55.6886993  39.2033833  54.3466493
  54.9106993  38.8133833  54.2746493  56.1796993  38.7913833  53.7556493
  55.6456993  39.0843833  54.2486493  55.8936993  49.5233833  44.9046493
  56.3166993  49.1673833  44.2306493  56.2176993  49.1013833  45.5966493
  56.0036993  49.4083833  44.9076493  59.1246993  52.3753833  44.2006493
  59.9686993  52.4793833  44.0056493  58.8276993  53.1933833  44.2686493
  59.2056993  52.5113833  44.1816493  62.3376993  36.8463833  53.5146493
  62.5156993  36.0373833  53.2396493  62.1946993  37.2873833  52.7756493
  62.3426993  36.7923833  53.3646493  62.9316993  41.7723833  42.2876493
  63.2186993  41.5403833  41.4976493  63.6636993  41.8513833  42.7566493
  63.0816993  41.7493833  42.2406493  63.6536993  42.1113833  37.4086493
  63.9346993  42.8993833  37.6576493  62.8776993  42.2763833  37.0456493
  63.5806993  42.2523833  37.3916493  58.1226993  53.5943833  49.9406493
  58.4146993  53.5273833  50.7606493  57.4966993  52.9893833  49.8956493
  58.0736993  53.4953833  50.0556493  53.0366993  39.7513833  51.9326493
  53.0326993  40.3383833  52.5786493  53.6306993  40.0633833  51.3756493
  53.1236993  39.8843833  51.9456493  65.3746993  50.0853833  52.4746493
  65.3406993  50.4673833  53.2586493  66.2286993  50.0433833  52.3036493
  65.4956993  50.1353833  52.5656493  62.5126993  50.2823833  37.2246493
  62.3316993  50.8273833  37.8816493  63.2786993  50.5723833  36.9236493
  62.5986993  50.4063833  37.2776493  53.9736993  39.3463833  40.8476493
  53.8596993  38.4823833  40.8786493  53.4986993  39.6403833  41.5176493
  53.8866993  39.2623833  40.9506493  56.1156993  51.7563833  49.0626493
  55.4176993  51.2483833  49.1886493  56.3756993  51.5513833  48.2546493
  56.0506993  51.6513833  48.9616493  63.2776993  40.5543833  39.5926493
  62.7696993  39.8923833  39.3386493  63.3296993  41.0583833  38.8826493
  63.2106993  40.5313833  39.4506493  63.8266993  53.2493833  49.9726493
  64.5946993  53.1693833  49.5666493  63.2436993  53.1283833  49.3346493
  63.8536993  53.2193833  49.8186493  63.2776993  37.4953833  39.4836493
  62.8226993  37.0933833  38.8576493  64.0506993  37.6503833  39.1086493
  63.3246993  37.4593833  39.3356493  61.8756993  39.8623833  44.0056493
  61.9496993  40.4303833  43.3476493  61.9966993  40.3543833  44.7156493
  61.9036993  40.0193833  44.0136493  57.4766993  50.6073833  51.6296493
  58.3176993  50.6703833  51.4076493  57.4396993  51.0043833  52.4056493
  57.5956993  50.6753833  51.7116493  56.4836993  35.6853833  42.3536493
  57.0196993  36.3733833  42.3436493  56.4866993  35.4113833  41.5256493
  56.5626993  35.7463833  42.2296493  59.4396993  46.1183833  46.3786493
  59.6116993  45.9083833  47.2076493  58.7846993  45.5843833  46.1626493
  59.3686993  46.0083833  46.4696493  65.6676993  40.0323833  49.8936493
  65.5726993  40.3513833  50.6996493  65.0746993  39.3933833  49.8556493
  65.5656993  39.9843833  50.0076493  60.1896993  46.0563833  48.9686493
  60.2426993  46.9033833  49.1706493  59.9046993  45.6863833  49.7056493
  60.1556993  46.1263833  49.1066493  66.3666993  46.7513833  48.0986493
  65.8526993  46.3393833  48.6696493  66.2406993  47.5953833  48.2796493
  66.2726993  46.8153833  48.2096493  53.0106993  50.4273833  55.1796493
  53.7666993  50.7763833  55.4376493  53.1876993  49.5743833  55.1226493
  53.1486993  50.3523833  55.2096493  56.9316993  39.4953833  44.0076493
  57.2036993  39.0653833  43.2996493  56.7556993  38.8593833  44.5786493
  56.9456993  39.3383833  43.9876493  56.7556993  46.9223833  43.5566493
  57.6066993  46.8423833  43.3836493  56.3986993  46.2403833  43.1446493
  56.8286993  46.8093833  43.4696493  55.5226993  53.6473833  44.7936493
  54.8496993  53.1493833  44.5486493  55.9256993  53.8323833  44.0426493
  55.4826993  53.6013833  44.6466493  55.0726993  40.5973833  47.0896493
  55.9156993  40.8173833  47.0466493  54.6836993  41.1703833  46.5586493
  55.1396993  40.7143833  47.0046493  59.1236993  46.9293833  41.7916493
  59.8366993  47.4243833  41.8816493  59.3456993  46.3623833  41.1656493
  59.2616993  46.9183833  41.7126493  53.2796993  48.5723833  45.1116493
  52.6126993  49.0603833  45.3876493  53.9596993  49.1173833  45.1406493
  53.2816993  48.7243833  45.1566493  60.9266993  42.2823833  55.2076493
  60.4426993  42.8593833  55.6496493  60.8986993  42.5773833  54.3866493
  60.8506993  42.4113833  55.1516493  53.3456993  45.2563833  40.2146493
  53.1606993  44.4173833  40.3666493  54.0046993  45.2203833  39.6446493
  53.4156993  45.1273833  40.1526493  63.6466993  50.6323833  44.1186493
  63.1236993  51.2663833  43.8256493  63.9566993  50.2683833  43.3896493
  63.6146993  50.6723833  43.9676493  53.5176993  49.4203833  39.7896493
  54.0696993  49.9893833  40.1536493  53.2856993  48.9053833  40.4546493
  53.5646993  49.4283833  39.9416493  57.7216993  48.4203833  46.8786493
  58.1886993  48.7093833  47.5566493  58.2936993  47.9423833  46.4246493
  57.8756993  48.3923833  46.9116493  53.3476993  47.8693833  37.4176493
  54.1036993  47.4373833  37.4756493  53.3626993  48.4013833  38.1086493
  53.4616993  47.8843833  37.5286493  54.2876993  46.0903833  45.4226493
  54.7186993  45.9613833  44.6756493  54.0826993  46.9383833  45.3966493
  54.3206993  46.1963833  45.3086493  60.6336993  39.6543833  39.0726493
  60.6316993  39.5373833  38.2076493  60.4526993  40.5023833  39.1646493
  60.6066993  39.7623833  38.9586493  58.3716993  49.6063833  43.7046493
  58.4976993  50.4493833  43.8916493  59.0396993  49.2073833  44.1006493
  58.4896993  49.6723833  43.7906493  56.5016993  43.0893833  53.5666493
  55.9656993  42.5833833  54.0346493  56.5216993  42.6993833  52.7866493
  56.4246993  42.9563833  53.5206493  56.9866993  42.4863833  38.7066493
  56.8586993  42.0383833  39.4446493  56.4046993  42.1443833  38.1546493
  56.8816993  42.3693833  38.7346493  57.1536993  44.3163833  45.3056493
  56.3726993  44.2573833  44.9226493  57.2256993  43.5643833  45.7426493
  57.0486993  44.1973833  45.3136493  57.5836993  44.0533833  48.7736493
  57.6086993  43.3783833  48.2226493  56.9376993  44.5493833  48.4616493
  57.4926993  44.0263833  48.6466493  61.6836993  52.8303833  48.1656493
  61.4066993  52.1893833  47.6426493  61.4756993  53.5563833  47.7276493
  61.6126993  52.8433833  48.0236493  64.1236993  37.6723833  50.5986493
  64.2726993  36.8473833  50.3556493  64.5026993  37.7273833  51.3826493
  64.2016993  37.5583833  50.6786493  65.6716993  39.7353833  40.6806493
  66.1616993  40.4523833  40.6036493  64.8816993  39.9963833  40.4176493
  65.6276993  39.8793833  40.6306493  55.3826993  45.4083833  54.3326493
  55.3456993  45.9093833  53.6186493  55.7136993  44.6563833  54.0376493
  55.4256993  45.3703833  54.1836493  61.2816993  50.4583833  53.7676493
  61.6356993  50.2803833  54.5446493  60.8456993  49.7293833  53.5686493
  61.2696993  50.3243833  53.8536493  62.2536993  41.2053833  46.4056493
  62.7336993  41.9043833  46.6136493  62.6266993  40.5583833  46.8566493
  62.3796993  41.2133833  46.5026493  64.4426993  44.3743833  38.6796493
  64.4346993  45.0963833  38.1896493  63.8036993  44.5093833  39.2566493
  64.3476993  44.5013833  38.6926493  65.4596993  51.3103833  46.5046493
  64.8566993  51.0143833  45.9476493  66.0046993  51.7623833  45.9956493
  65.4506993  51.3333833  46.3466493  65.4726993  48.1613833  45.9046493
  64.6756993  48.3853833  46.1786493  65.7306993  47.5673833  46.4896493
  65.3926993  48.1063833  46.0316493  59.3646993  52.9733833  40.3526493
  59.2176993  52.1973833  40.7236493  60.0536993  52.8263833  39.8376493
  59.4446993  52.8363833  40.3316493  59.0356993  36.7163833  38.3406493
  59.1326993  36.6093833  39.2016493  58.3276993  37.2223833  38.2756493
  58.9456993  36.7753833  38.4586493  61.6566993  52.4893833  38.7546493
  62.2786993  52.6523833  39.3446493  61.6926993  53.1803833  38.2226493
  61.7536993  52.6153833  38.7636493  64.9236993  51.5083833  55.0276493
  65.0876993  51.7913833  55.8366493  65.1866993  52.1693833  54.5226493
  64.9866993  51.6483833  55.0726493  56.1576993  45.0233833  39.5836493
  56.4816993  44.2443833  39.3616493  56.8036993  45.3913833  40.0386493
  56.3006993  44.9623833  39.6176493  64.4636993  45.9653833  50.3506493
  64.3086993  46.5753833  50.9546493  64.9976993  45.4073833  50.7566493
  64.5196993  45.9733833  50.4996493  53.1546993  36.6843833  40.5516493
  53.2836993  35.9763833  40.0596493  52.7876993  36.3663833  41.2766493
  53.1196993  36.5323833  40.5866493  62.8476993  44.3653833  41.0086493
  62.9066993  45.0153833  41.5876493  62.6586993  43.6693833  41.4996493
  62.8286993  44.3583833  41.1666493  57.3436993  38.8823833  37.5206493
  56.8326993  38.9353833  36.8146493  58.1276993  39.1223833  37.2246493
  57.3836993  38.9253833  37.3726493  62.0706993  46.4123833  45.4396493
  61.2236993  46.2183833  45.5206493  62.3946993  46.2473833  46.2326493
  61.9926993  46.3593833  45.5686493  58.8226993  53.1423833  36.3256493
  59.2616993  52.4453833  36.6136493  59.0296993  53.7663833  36.8986493
  58.9186993  53.1313833  36.4526493  55.9186993  46.1053833  47.7556493
  56.6406993  46.5933833  47.7186493  55.6486993  46.0753833  46.9266493
  55.9856993  46.1733833  47.6276493  59.1486993  41.2763833  44.4906493
  59.9946993  41.0863833  44.5886493  58.7786993  40.4993833  44.3526493
  59.2186993  41.1333833  44.4846493  53.9696993  42.6143833  41.1456493
  54.4586993  42.3223833  41.8066493  54.0986993  42.0213833  40.5186493
  54.0606993  42.4833833  41.1506493  58.4946993  44.0483833  36.6316493
  57.8846993  43.6433833  37.1056493  58.1086993  44.1663833  35.8586493
  58.3476993  44.0053833  36.5876493  55.3136993  47.1573833  52.0336493
  54.8926993  46.6393833  51.4726493  54.9616993  47.9433833  51.8906493
  55.1996993  47.1973833  51.9296493  59.9496993  42.5093833  39.3416493
  60.2216993  43.3353833  39.4086493  59.0866993  42.5843833  39.2456493
  59.8626993  42.6423833  39.3366493  53.4296993  38.4793833  45.8776493
  53.4736993  38.8233833  45.0766493  54.1846993  38.7163833  46.2446493
  53.5476993  38.5653833  45.8136493  65.3706993  47.8183833  37.3476493
  66.0546993  47.3043833  37.1786493  64.9536993  47.8643833  36.5826493
  65.4096993  47.7493833  37.2096493  60.0526993  48.9683833  48.6516493
  59.7546993  49.5603833  49.2186493  60.1076993  49.4103833  47.9026493
  60.0166993  49.1213833  48.6246493  58.0316993  47.9183833  52.0496493
  57.2256993  47.6283833  52.2166493  57.9426993  48.7863833  52.0556493
  57.8996993  48.0033833  52.0746493  62.5686993  45.3913833  48.1426493
  63.0446993  45.7653833  48.7706493  61.7456993  45.5253833  48.4016493
  62.5176993  45.4663833  48.2736493  59.2786993  40.9943833  50.8836493
  59.4396993  40.2503833  51.3106493  59.2336993  40.7453833  50.0486493
  59.2956993  40.8473833  50.8236493  61.8326993  52.7843833  43.3706493
  62.3786993  53.4633833  43.4246493  61.4826993  52.8663833  42.5756493
  61.8616993  52.8973833  43.2606493  61.0306993  36.8023833  50.7636493
  61.7356993  37.1223833  50.3616493  61.2716993  35.9953833  50.9906493
  61.1696993  36.7303833  50.7376493  60.0156993  51.0123833  46.7596493
  59.3916993  51.5943833  46.5776493  60.2636993  50.7263833  45.9736493
  59.9596993  51.0563833  46.6166493  64.3246993  47.6463833  53.7486493
  65.0816993  47.9323833  53.4226493  63.7776993  47.6983833  53.0706493
  64.3556993  47.6963833  53.5996493  61.6096993  45.7883833  36.6746493
  60.8046993  45.6113833  36.3896493  61.5766993  46.6393833  36.8666493
  61.4856993  45.8873833  36.6616493  57.5396993  41.8553833  46.8246493
  57.9796993  41.7523833  46.0786493  58.0846993  41.5423833  47.4296493
  57.6846993  41.7943833  46.8036493  65.5556993  40.9573833  52.4166493
  64.9076993  41.4273833  52.7646493  66.1206993  40.8683833  53.0756493
  65.5436993  41.0133833  52.5656493  65.2436993  42.4943833  48.7146493
  65.5456993  42.9143833  49.4176493  65.2796993  41.6543833  48.9466493
  65.2936993  42.4323833  48.8526493  62.6686993  52.6613833  52.6396493
  63.1466993  52.0613833  52.2236493  62.3176993  52.2183833  53.3046493
  62.6876993  52.5073833  52.6766493  61.0866993  36.8403833  46.8716493
  60.2606993  36.6913833  47.1086493  61.0466993  36.8753833  46.0006493
  60.9586993  36.8233833  46.7776493  62.7276993  47.8803833  51.6596493
  61.9326993  47.8163833  52.0106493  62.7986993  48.7273833  51.4646493
  62.6206993  47.9953833  51.6826493  53.6516993  37.2383833  52.9066493
  53.5116993  38.0333833  52.5756493  52.8656993  36.9953833  53.1956493
  53.5146993  37.3203833  52.9006493  58.5576993  54.0873833  46.9766493
  58.5686993  54.1463833  47.8466493  58.1326993  53.3403833  46.8266493
  58.4966993  53.9853833  47.0826493  56.7156993  39.9823833  40.1316493
  56.8416993  39.6533833  39.3336493  55.9036993  39.7333833  40.3306493
  56.6146993  39.8973833  40.0436493  65.4726993  47.1353833  43.1756493
  65.5486993  47.4763833  43.9746493  65.6416993  46.2883833  43.2966493
  65.5086993  47.0603833  43.3116493  62.9946993  46.4093833  42.7406493
  62.6966993  46.0943833  43.4976493  63.6896993  46.8823833  42.9756493
  63.0536993  46.4323833  42.8876493  63.2166993  50.5273833  50.7676493
  63.9036993  50.4133833  51.2926493  63.3506993  51.3183833  50.4236493
  63.3376993  50.6273833  50.7946493  55.3216993  53.5853833  52.4186493
  54.6676993  53.0163833  52.5166493  54.9466993  54.3583833  52.5696493
  55.1696993  53.6153833  52.4556493  63.8396993  44.9913833  54.3416493
  64.1626993  45.6773833  53.9096493  63.1356993  45.3143833  54.7436493
  63.7826993  45.1403833  54.3366493  63.6246993  48.4553833  48.2006493
  62.9306993  48.8573833  48.5436493  64.3016993  48.8883833  48.5396493
  63.6216993  48.5783833  48.3016493  56.6926993  41.9933833  50.5476493
  57.0676993  42.6123833  50.0606493  57.3666993  41.5193833  50.8326493
  56.8476993  42.0153833  50.5176493  54.4676993  40.4413833  49.8226493
  54.5446993  40.2723833  48.9696493  55.2136993  40.8473833  50.0196493
  54.5886993  40.4763833  49.7256493  57.0216993  37.8513833  52.2336493
  56.9406993  37.0073833  52.4396493  56.7076993  37.8953833  51.4206493
  56.9636993  37.7333833  52.1436493  63.9466993  50.0463833  41.3696493
  63.7416993  50.8793833  41.2106493  63.1716993  49.6643833  41.4916493
  63.8016993  50.1133833  41.3646493  53.8646993  45.6673833  50.0466493
  54.1846993  45.8863833  49.2656493  53.7646993  44.8023833  49.9916493
  53.8966993  45.5723833  49.9236493  55.3206993  41.6033833  36.6646493
  54.6486993  41.6173833  37.2206493  55.4156993  40.7553833  36.4806493
  55.2356993  41.4803833  36.7196493  65.0076993  38.0273833  53.4006493
  65.0996993  38.7393833  53.8946493  64.3706993  37.5823833  53.7976493
  64.9266993  38.0663833  53.5326493  64.0016993  38.2173833  44.2546493
  63.3016993  38.7353833  44.1986493  64.0396993  37.8373833  43.4706493
  63.9036993  38.2383833  44.1306493  59.3086993  50.3083833  37.7786493
  59.7496993  50.3883833  38.5266493  58.5036993  50.0923833  38.0366493
  59.2546993  50.2883833  37.9276493  58.6276993  44.9593833  51.4316493
  58.2316993  45.7333833  51.5066493  58.2216993  44.5863833  50.7556493
  58.5096993  45.0183833  51.3426493  56.6376993  49.3783833  38.3796493
  56.3936993  49.0713833  39.1596493  56.6046993  48.6753833  37.8636493
  56.5966993  49.2293833  38.4186493  59.4566993  47.6233833  37.1226493
  58.6386993  47.3553833  37.2626493  59.4286993  48.4753833  37.3076493
  59.3316993  47.7103833  37.1706493  59.0566993  37.9363833  48.8816493
  58.1926993  38.0203833  48.9616493  59.2766993  37.4223833  49.5506493
  58.9616993  37.8733833  48.9926493  63.1596993  38.6843833  47.2556493
  62.4226993  38.2303833  47.3686493  63.7306993  38.2823833  47.7786493
  63.1346993  38.5573833  47.3496493  65.8916993  49.5323833  49.0436493
  66.0976993  49.8333833  49.8356493  65.8306993  50.2543833  48.5586493
  65.9126993  49.6833833  49.0886493  65.4256993  53.7463833  53.2896493
  64.6726993  53.7283833  52.8486493  65.5936993  54.5983833  53.3736493
  65.3396993  53.8693833  53.2366493  60.6626993  43.0133833  52.4596493
  60.3406993  42.4373833  51.8896493  60.3036993  43.7683833  52.2136493
  60.5626993  43.0393833  52.3396493  61.4586993  36.2653833  37.0866493
  61.5366993  36.5123833  36.2536493  60.7156993  36.6423833  37.3446493
  61.3606993  36.3573833  37.0016493  59.0976993  53.3693833  52.7076493
  59.1386993  53.4953833  53.5706493  59.7486993  52.8093833  52.5516493
  59.1996993  53.3053833  52.8126493  56.2766993  38.0193833  49.5296493
  55.9336993  37.2523833  49.2956493  55.5816993  38.5433833  49.5936493
  56.1236993  37.9833833  49.5046493  65.3226993  36.8753833  46.5066493
  65.9926993  37.4193833  46.6336493  64.8196993  37.2993833  45.9336493
  65.3476993  37.0183833  46.4406493  56.6906993  51.7523833  54.0676493
  57.2856993  52.1833833  54.5396493  56.3266993  52.3763833  53.5786493
  56.7246993  51.9083833  54.0646493  64.6816993  42.6833833  43.9996493
  65.2326993  42.0763833  44.2996493  64.2566993  42.9463833  44.7146493
  64.7006993  42.6323833  44.1486493  54.9296993  41.3333833  43.4856493
  54.5616993  41.6353833  44.2166493  55.4636993  40.7043833  43.7696493
  54.9536993  41.2853833  43.6356493  54.6176993  49.7413833  50.9966493
  54.0436993  50.1573833  51.5056493  55.3506993  50.2063833  51.0916493
  54.6416993  49.8713833  51.0856493  56.4036993  53.0083833  39.7716493
  56.2586993  53.1643833  38.9256493  57.2696993  53.0873833  39.8496493
  56.5106993  53.0433833  39.6586493  60.5706993  45.4053833  39.4996493
  60.6706993  45.5443833  38.6446493  61.3886993  45.3453833  39.7956493
  60.7056993  45.4163833  39.4166493  65.8056993  49.7343833  39.3016493
  65.5546993  49.6063833  40.1276493  65.4886993  49.0393833  38.8806493
  65.7216993  49.6133833  39.3616493  59.7096993  38.3803833  52.6156493
  59.9436993  37.8043833  52.0026493  58.8676993  38.1993833  52.7566493
  59.6196993  38.2683833  52.5456493  57.0906993  51.8233833  46.2486493
  57.0116993  51.0133833  45.9326493  56.6466993  52.3103833  45.6766493
  57.0136993  51.7753833  46.1176493  62.6916993  47.9423833  38.7316493
  63.4086993  47.5953833  38.3756493  62.6576993  48.7423833  38.3836493
  62.7926993  48.0093833  38.6276493  54.6626993  54.0673833  49.8296493
  55.1556993  54.0113833  50.5476493  54.8506993  53.3343833  49.3946493
  54.7636993  53.9503833  49.8716493  64.1006993  36.5833833  22.9704083
  63.8556993  37.0713833  22.2904083  64.9636993  36.5103833  22.8704083
  64.1916993  36.6443833  22.8554083  63.9096993  43.4993833  27.6414083
  63.3856993  44.0953833  28.0044083  64.3066993  43.1313833  28.3254083
  63.8906993  43.5333833  27.7964083  53.7786993  47.6393833  23.0974083
  53.3376993  47.7573833  23.8404083  53.4956993  46.8643833  22.8124083
  53.6716993  47.5423833  23.1654083  53.5216993  41.4313833  19.6044083
  52.7436993  41.5933833  19.2444083  53.5606993  40.5603833  19.6264083
  53.4126993  41.3263833  19.5544083  56.6606993  46.6943833  18.2764083
  56.2686993  46.3233833  17.5904083  56.5806993  46.0963833  18.9054083
  56.5906993  46.5513833  18.2674083  56.2876993  48.3353833  22.1764083
  56.8956993  48.1653833  22.7794083  55.5366993  48.1953833  22.5974083
  56.2666993  48.2893833  22.3274083  60.5696993  37.6703833  22.1254083
  60.4996993  38.3473833  21.5794083  61.3106993  37.2823833  21.8764083
  60.6686993  37.7133833  22.0074083  55.1786993  51.4263833  18.2534083
  55.6456993  51.5103833  17.5214083  55.6336993  50.8483833  18.7224083
  55.3146993  51.3533833  18.2144083  53.7186993  50.3743833  29.3524083
  53.8476993  50.0943833  30.1684083  53.1086993  49.8333833  29.0434083
  53.6476993  50.2533833  29.4274083  60.2926993  47.8993833  34.4194083
  60.0566993  47.8963833  35.2594083  59.5446993  47.7513833  33.9954083
  60.1466993  47.8763833  34.4804083  55.1646993  44.8953833  23.5544083
  54.7026993  44.5033833  22.9274083  55.8646993  44.3823833  23.6464083
  55.1996993  44.7623833  23.4754083  59.6726993  40.5053833  28.9014083
  60.3506993  40.5233833  28.3524083  59.6276993  39.6693833  29.1464083
  59.7656993  40.3843833  28.8564083  60.2746993  51.0913833  31.6824083
  60.4126993  51.8513833  31.2754083  61.0656993  50.7263833  31.7094083
  60.4116993  51.1503833  31.6264083  57.1656993  42.9953833  23.5774083
  57.9826993  42.8083833  23.8204083  56.6886993  42.3813833  23.9734083
  57.2156993  42.8773833  23.6724083  61.3696993  48.9763833  26.1874083
  61.7176993  48.1773833  26.2174083  62.0346993  49.4803833  25.9324083
  61.5196993  48.9323833  26.1544083  61.4266993  48.4253833  22.3984083
  61.7576993  47.7813833  22.8844083  61.6666993  48.2143833  21.5874083
  61.5106993  48.2993833  22.3504083  63.3946993  42.5563833  33.7374083
  62.5466993  42.4573833  33.5594083  63.4236993  43.3013833  34.1914083
  63.2736993  42.6523833  33.7784083  57.7626993  38.0893833  22.8434083
  57.4666993  38.5903833  22.1934083  58.6296993  38.1673833  22.7864083
  57.8466993  38.1753833  22.7394083  60.7416993  37.2313833  25.0664083
  60.8146993  38.0913833  25.1954083  60.7036993  37.1563833  24.1984083
  60.7466993  37.3473833  24.9574083  65.4146993  40.1573833  17.3654083
  64.9646993  40.8383833  17.6724083  65.5286993  39.6533833  18.0684083
  65.3656993  40.1833833  17.5144083  53.6206993  42.6563833  26.5674083
  53.3646993  43.4873833  26.4924083  52.9566993  42.2733833  26.9844083
  53.4846993  42.7223833  26.6184083  53.5306993  52.3663833  24.4674083
  52.9386993  52.9243833  24.1544083  53.9566993  52.0973833  23.7554083
  53.5066993  52.4083833  24.3164083  59.3706993  50.2103833  21.9474083
  58.7916993  49.9353833  22.5394083  59.9946993  49.6013833  21.9724083
  59.3776993  50.0803833  22.0384083  65.5136993  52.4983833  19.4694083
  66.2406993  52.9703833  19.5714083  65.7426993  51.7043833  19.7494083
  65.6556993  52.4513833  19.5264083  63.6816993  52.8903833  21.4594083
  63.8956993  53.4173833  22.1214083  64.4486993  52.7163833  21.0804083
  63.8266993  52.9423833  21.5014083  56.6496993  37.4733833  27.0584083
  56.1286993  36.8453833  26.7504083  57.2406993  37.0363833  27.5294083
  56.6606993  37.3153833  27.0824083  59.9556993  39.6063833  36.3564083
  60.0726993  39.1523833  35.6204083  60.2436993  40.4043833  36.1534083
  60.0156993  39.6573833  36.2174083  55.0756993  51.0363833  22.3984083
  55.7316993  50.4613833  22.4134083  55.4646993  51.7853833  22.1774083
  55.2306993  51.0613833  22.3684083  55.6886993  39.2033833  35.3404083
  54.9106993  38.8133833  35.2684083  56.1796993  38.7913833  34.7494083
  55.6456993  39.0843833  35.2424083  55.8936993  49.5233833  25.8984083
  56.3166993  49.1673833  25.2244083  56.2176993  49.1013833  26.5904083
  56.0036993  49.4083833  25.9014083  59.1246993  52.3753833  25.1944083
  59.9686993  52.4793833  24.9994083  58.8276993  53.1933833  25.2624083
  59.2056993  52.5113833  25.1754083  62.3376993  36.8463833  34.5084083
  62.5156993  36.0373833  34.2334083  62.1946993  37.2873833  33.7694083
  62.3426993  36.7923833  34.3584083  62.9316993  41.7723833  23.2814083
  63.2186993  41.5403833  22.4914083  63.6636993  41.8513833  23.7504083
  63.0816993  41.7493833  23.2344083  63.6536993  42.1113833  18.4024083
  63.9346993  42.8993833  18.6514083  62.8776993  42.2763833  18.0394083
  63.5806993  42.2523833  18.3854083  58.1226993  53.5943833  30.9344083
  58.4146993  53.5273833  31.7544083  57.4966993  52.9893833  30.8894083
  58.0736993  53.4953833  31.0494083  53.0366993  39.7513833  32.9264083
  53.0326993  40.3383833  33.5724083  53.6306993  40.0633833  32.3694083
  53.1236993  39.8843833  32.9394083  65.3746993  50.0853833  33.4684083
  65.3406993  50.4673833  34.2524083  66.2286993  50.0433833  33.2974083
  65.4956993  50.1353833  33.5594083  62.5126993  50.2823833  18.2184083
  62.3316993  50.8273833  18.8754083  63.2786993  50.5723833  17.9174083
  62.5986993  50.4063833  18.2714083  53.9736993  39.3463833  21.8414083
  53.8596993  38.4823833  21.8724083  53.4986993  39.6403833  22.5114083
  53.8866993  39.2623833  21.9444083  56.1156993  51.7563833  30.0564083
  55.4176993  51.2483833  30.1824083  56.3756993  51.5513833  29.2484083
  56.0506993  51.6513833  29.9554083  63.2776993  40.5543833  20.5864083
  62.7696993  39.8923833  20.3324083  63.3296993  41.0583833  19.8764083
  63.2106993  40.5313833  20.4444083  63.8266993  53.2493833  30.9664083
  64.5946993  53.1693833  30.5604083  63.2436993  53.1283833  30.3284083
  63.8536993  53.2193833  30.8124083  63.2776993  37.4953833  20.4774083
  62.8226993  37.0933833  19.8514083  64.0506993  37.6503833  20.1024083
  63.3246993  37.4593833  20.3294083  61.8756993  39.8623833  24.9994083
  61.9496993  40.4303833  24.3414083  61.9966993  40.3543833  25.7094083
  61.9036993  40.0193833  25.0074083  57.4766993  50.6073833  32.6234083
  58.3176993  50.6703833  32.4014083  57.4396993  51.0043833  33.3994083
  57.5956993  50.6753833  32.7054083  56.4836993  35.6853833  23.3474083
  57.0196993  36.3733833  23.3374083  56.4866993  35.4113833  22.5194083
  56.5626993  35.7463833  23.2234083  59.4396993  46.1183833  27.3724083
  59.6116993  45.9083833  28.2014083  58.7846993  45.5843833  27.1564083
  59.3686993  46.0083833  27.4634083  65.6676993  40.0323833  30.8874083
  65.5726993  40.3513833  31.6934083  65.0746993  39.3933833  30.8494083
  65.5656993  39.9843833  31.0014083  60.1896993  46.0563833  29.9624083
  60.2426993  46.9033833  30.1644083  59.9046993  45.6863833  30.6994083
  60.1556993  46.1263833  30.1004083  66.3666993  46.7513833  29.0924083
  65.8526993  46.3393833  29.6634083  66.2406993  47.5953833  29.2734083
  66.2726993  46.8153833  29.2034083  53.0106993  50.4273833  36.1734083
  53.7666993  50.7763833  36.4314083  53.1876993  49.5743833  36.1164083
  53.1486993  50.3523833  36.2034083  56.9316993  39.4953833  25.0014083
  57.2036993  39.0653833  24.2934083  56.7556993  38.8593833  25.5724083
  56.9456993  39.3383833  24.9814083  56.7556993  46.9223833  24.5504083
  57.6066993  46.8423833  24.3774083  56.3986993  46.2403833  24.1384083
  56.8286993  46.8093833  24.4634083  55.5226993  53.6473833  25.7874083
  54.8496993  53.1493833  25.5424083  55.9256993  53.8323833  25.0364083
  55.4826993  53.6013833  25.6404083  55.0726993  40.5973833  28.0834083
  55.9156993  40.8173833  28.0404083  54.6836993  41.1703833  27.5524083
  55.1396993  40.7143833  27.9984083  59.1236993  46.9293833  22.7854083
  59.8366993  47.4243833  22.8754083  59.3456993  46.3623833  22.1594083
  59.2616993  46.9183833  22.7064083  53.2796993  48.5723833  26.1054083
  52.6126993  49.0603833  26.3814083  53.9596993  49.1173833  26.1344083
  53.2816993  48.7243833  26.1504083  60.9266993  42.2823833  36.2014083
  60.4426993  42.8593833  36.6434083  60.8986993  42.5773833  35.3804083
  60.8506993  42.4113833  36.1454083  53.3456993  45.2563833  21.2084083
  53.1606993  44.4173833  21.3604083  54.0046993  45.2203833  20.6384083
  53.4156993  45.1273833  21.1464083  63.6466993  50.6323833  25.1124083
  63.1236993  51.2663833  24.8194083  63.9566993  50.2683833  24.3834083
  63.6146993  50.6723833  24.9614083  53.5176993  49.4203833  20.7834083
  54.0696993  49.9893833  21.1474083  53.2856993  48.9053833  21.4484083
  53.5646993  49.4283833  20.9354083  57.7216993  48.4203833  27.8724083
  58.1886993  48.7093833  28.5504083  58.2936993  47.9423833  27.4184083
  57.8756993  48.3923833  27.9054083  53.3476993  47.8693833  18.4114083
  54.1036993  47.4373833  18.4694083  53.3626993  48.4013833  19.1024083
  53.4616993  47.8843833  18.5224083  54.2876993  46.0903833  26.4164083
  54.7186993  45.9613833  25.6694083  54.0826993  46.9383833  26.3904083
  54.3206993  46.1963833  26.3024083  60.6336993  39.6543833  20.0664083
  60.6316993  39.5373833  19.2014083  60.4526993  40.5023833  20.1584083
  60.6066993  39.7623833  19.9524083  58.3716993  49.6063833  24.6984083
  58.4976993  50.4493833  24.8854083  59.0396993  49.2073833  25.0944083
  58.4896993  49.6723833  24.7844083  56.5016993  43.0893833  34.5604083
  55.9656993  42.5833833  35.0284083  56.5216993  42.6993833  33.7804083
  56.4246993  42.9563833  34.5144083  56.9866993  42.4863833  19.7004083
  56.8586993  42.0383833  20.4384083  56.4046993  42.1443833  19.1484083
  56.8816993  42.3693833  19.7284083  57.1536993  44.3163833  26.2994083
  56.3726993  44.2573833  25.9164083  57.2256993  43.5643833  26.7364083
  57.0486993  44.1973833  26.3074083  57.5836993  44.0533833  29.7674083
  57.6086993  43.3783833  29.2164083  56.9376993  44.5493833  29.4554083
  57.4926993  44.0263833  29.6404083  61.6836993  52.8303833  29.1594083
  61.4066993  52.1893833  28.6364083  61.4756993  53.5563833  28.7214083
  61.6126993  52.8433833  29.0174083  64.1236993  37.6723833  31.5924083
  64.2726993  36.8473833  31.3494083  64.5026993  37.7273833  32.3764083
  64.2016993  37.5583833  31.6724083  65.6716993  39.7353833  21.6744083
  66.1616993  40.4523833  21.5974083  64.8816993  39.9963833  21.4114083
  65.6276993  39.8793833  21.6244083  55.3826993  45.4083833  35.3264083
  55.3456993  45.9093833  34.6124083  55.7136993  44.6563833  35.0314083
  55.4256993  45.3703833  35.1774083  61.2816993  50.4583833  34.7614083
  61.6356993  50.2803833  35.5384083  60.8456993  49.7293833  34.5624083
  61.2696993  50.3243833  34.8474083  62.2536993  41.2053833  27.3994083
  62.7336993  41.9043833  27.6074083  62.6266993  40.5583833  27.8504083
  62.3796993  41.2133833  27.4964083  64.4426993  44.3743833  19.6734083
  64.4346993  45.0963833  19.1834083  63.8036993  44.5093833  20.2504083
  64.3476993  44.5013833  19.6864083  65.4596993  51.3103833  27.4984083
  64.8566993  51.0143833  26.9414083  66.0046993  51.7623833  26.9894083
  65.4506993  51.3333833  27.3404083  65.4726993  48.1613833  26.8984083
  64.6756993  48.3853833  27.1724083  65.7306993  47.5673833  27.4834083
  65.3926993  48.1063833  27.0254083  59.3646993  52.9733833  21.3464083
  59.2176993  52.1973833  21.7174083  60.0536993  52.8263833  20.8314083
  59.4446993  52.8363833  21.3254083  59.0356993  36.7163833  19.3344083
  59.1326993  36.6093833  20.1954083  58.3276993  37.2223833  19.2694083
  58.9456993  36.7753833  19.4524083  61.6566993  52.4893833  19.7484083
  62.2786993  52.6523833  20.3384083  61.6926993  53.1803833  19.2164083
  61.7536993  52.6153833  19.7574083  64.9236993  51.5083833  36.0214083
  65.0876993  51.7913833  36.8304083  65.1866993  52.1693833  35.5164083
  64.9866993  51.6483833  36.0664083  56.1576993  45.0233833  20.5774083
  56.4816993  44.2443833  20.3554083  56.8036993  45.3913833  21.0324083
  56.3006993  44.9623833  20.6114083  64.4636993  45.9653833  31.3444083
  64.3086993  46.5753833  31.9484083  64.9976993  45.4073833  31.7504083
  64.5196993  45.9733833  31.4934083  53.1546993  36.6843833  21.5454083
  53.2836993  35.9763833  21.0534083  52.7876993  36.3663833  22.2704083
  53.1196993  36.5323833  21.5804083  62.8476993  44.3653833  22.0024083
  62.9066993  45.0153833  22.5814083  62.6586993  43.6693833  22.4934083
  62.8286993  44.3583833  22.1604083  57.3436993  38.8823833  18.5144083
  56.8326993  38.9353833  17.8084083  58.1276993  39.1223833  18.2184083
  57.3836993  38.9253833  18.3664083  62.0706993  46.4123833  26.4334083
  61.2236993  46.2183833  26.5144083  62.3946993  46.2473833  27.2264083
  61.9926993  46.3593833  26.5624083  58.8226993  53.1423833  17.3194083
  59.2616993  52.4453833  17.6074083  59.0296993  53.7663833  17.8924083
  58.9186993  53.1313833  17.4464083  55.9186993  46.1053833  28.7494083
  56.6406993  46.5933833  28.7124083  55.6486993  46.0753833  27.9204083
  55.9856993  46.1733833  28.6214083  59.1486993  41.2763833  25.4844083
  59.9946993  41.0863833  25.5824083  58.7786993  40.4993833  25.3464083
  59.2186993  41.1333833  25.4784083  53.9696993  42.6143833  22.1394083
  54.4586993  42.3223833  22.8004083  54.0986993  42.0213833  21.5124083
  54.0606993  42.4833833  22.1444083  58.4946993  44.0483833  17.6254083
  57.8846993  43.6433833  18.0994083  58.1086993  44.1663833  16.8524083
  58.3476993  44.0053833  17.5814083  55.3136993  47.1573833  33.0274083
  54.8926993  46.6393833  32.4664083  54.9616993  47.9433833  32.8844083
  55.1996993  47.1973833  32.9234083  59.9496993  42.5093833  20.3354083
  60.2216993  43.3353833  20.4024083  59.0866993  42.5843833  20.2394083
  59.8626993  42.6423833  20.3304083  53.4296993  38.4793833  26.8714083
  53.4736993  38.8233833  26.0704083  54.1846993  38.7163833  27.2384083
  53.5476993  38.5653833  26.8074083  65.3706993  47.8183833  18.3414083
  66.0546993  47.3043833  18.1724083  64.9536993  47.8643833  17.5764083
  65.4096993  47.7493833  18.2034083  60.0526993  48.9683833  29.6454083
  59.7546993  49.5603833  30.2124083  60.1076993  49.4103833  28.8964083
  60.0166993  49.1213833  29.6184083  58.0316993  47.9183833  33.0434083
  57.2256993  47.6283833  33.2104083  57.9426993  48.7863833  33.0494083
  57.8996993  48.0033833  33.0684083  62.5686993  45.3913833  29.1364083
  63.0446993  45.7653833  29.7644083  61.7456993  45.5253833  29.3954083
  62.5176993  45.4663833  29.2674083  59.2786993  40.9943833  31.8774083
  59.4396993  40.2503833  32.3044083  59.2336993  40.7453833  31.0424083
  59.2956993  40.8473833  31.8174083  61.8326993  52.7843833  24.3644083
  62.3786993  53.4633833  24.4184083  61.4826993  52.8663833  23.5694083
  61.8616993  52.8973833  24.2544083  61.0306993  36.8023833  31.7574083
  61.7356993  37.1223833  31.3554083  61.2716993  35.9953833  31.9844083
  61.1696993  36.7303833  31.7314083  60.0156993  51.0123833  27.7534083
  59.3916993  51.5943833  27.5714083  60.2636993  50.7263833  26.9674083
  59.9596993  51.0563833  27.6104083  64.3246993  47.6463833  34.7424083
  65.0816993  47.9323833  34.4164083  63.7776993  47.6983833  34.0644083
  64.3556993  47.6963833  34.5934083  61.6096993  45.7883833  17.6684083
  60.8046993  45.6113833  17.3834083  61.5766993  46.6393833  17.8604083
  61.4856993  45.8873833  17.6554083  57.5396993  41.8553833  27.8184083
  57.9796993  41.7523833  27.0724083  58.0846993  41.5423833  28.4234083
  57.6846993  41.7943833  27.7974083  65.5556993  40.9573833  33.4104083
  64.9076993  41.4273833  33.7584083  66.1206993  40.8683833  34.0694083
  65.5436993  41.0133833  33.5594083  65.2436993  42.4943833  29.7084083
  65.5456993  42.9143833  30.4114083  65.2796993  41.6543833  29.9404083
  65.2936993  42.4323833  29.8464083  62.6686993  52.6613833  33.6334083
  63.1466993  52.0613833  33.2174083  62.3176993  52.2183833  34.2984083
  62.6876993  52.5073833  33.6704083  61.0866993  36.8403833  27.8654083
  60.2606993  36.6913833  28.1024083  61.0466993  36.8753833  26.9944083
  60.9586993  36.8233833  27.7714083  62.7276993  47.8803833  32.6534083
  61.9326993  47.8163833  33.0044083  62.7986993  48.7273833  32.4584083
  62.6206993  47.9953833  32.6764083  53.6516993  37.2383833  33.9004083
  53.5116993  38.0333833  33.5694083  52.8656993  36.9953833  34.1894083
  53.5146993  37.3203833  33.8944083  58.5576993  54.0873833  27.9704083
  58.5686993  54.1463833  28.8404083  58.1326993  53.3403833  27.8204083
  58.4966993  53.9853833  28.0764083  56.7156993  39.9823833  21.1254083
  56.8416993  39.6533833  20.3274083  55.9036993  39.7333833  21.3244083
  56.6146993  39.8973833  21.0374083  65.4726993  47.1353833  24.1694083
  65.5486993  47.4763833  24.9684083  65.6416993  46.2883833  24.2904083
  65.5086993  47.0603833  24.3054083  62.9946993  46.4093833  23.7344083
  62.6966993  46.0943833  24.4914083  63.6896993  46.8823833  23.9694083
  63.0536993  46.4323833  23.8814083  63.2166993  50.5273833  31.7614083
  63.9036993  50.4133833  32.2864083  63.3506993  51.3183833  31.4174083
  63.3376993  50.6273833  31.7884083  55.3216993  53.5853833  33.4124083
  54.6676993  53.0163833  33.5104083  54.9466993  54.3583833  33.5634083
  55.1696993  53.6153833  33.4494083  63.8396993  44.9913833  35.3354083
  64.1626993  45.6773833  34.9034083  63.1356993  45.3143833  35.7374083
  63.7826993  45.1403833  35.3304083  63.6246993  48.4553833  29.1944083
  62.9306993  48.8573833  29.5374083  64.3016993  48.8883833  29.5334083
  63.6216993  48.5783833  29.2954083  56.6926993  41.9933833  31.5414083
  57.0676993  42.6123833  31.0544083  57.3666993  41.5193833  31.8264083
  56.8476993  42.0153833  31.5114083  54.4676993  40.4413833  30.8164083
  54.5446993  40.2723833  29.9634083  55.2136993  40.8473833  31.0134083
  54.5886993  40.4763833  30.7194083  57.0216993  37.8513833  33.2274083
  56.9406993  37.0073833  33.4334083  56.7076993  37.8953833  32.4144083
  56.9636993  37.7333833  33.1374083  63.9466993  50.0463833  22.3634083
  63.7416993  50.8793833  22.2044083  63.1716993  49.6643833  22.4854083
  63.8016993  50.1133833  22.3584083  53.8646993  45.6673833  31.0404083
  54.1846993  45.8863833  30.2594083  53.7646993  44.8023833  30.9854083
  53.8966993  45.5723833  30.9174083  55.3206993  41.6033833  17.6584083
  54.6486993  41.6173833  18.2144083  55.4156993  40.7553833  17.4744083
  55.2356993  41.4803833  17.7134083  65.0076993  38.0273833  34.3944083
  65.0996993  38.7393833  34.8884083  64.3706993  37.5823833  34.7914083
  64.9266993  38.0663833  34.5264083  64.0016993  38.2173833  25.2484083
  63.3016993  38.7353833  25.1924083  64.0396993  37.8373833  24.4644083
  63.9036993  38.2383833  25.1244083  59.3086993  50.3083833  18.7724083
  59.7496993  50.3883833  19.5204083  58.5036993  50.0923833  19.0304083
  59.2546993  50.2883833  18.9214083  58.6276993  44.9593833  32.4254083
  58.2316993  45.7333833  32.5004083  58.2216993  44.5863833  31.7494083
  58.5096993  45.0183833  32.3364083  56.6376993  49.3783833  19.3734083
  56.3936993  49.0713833  20.1534083  56.6046993  48.6753833  18.8574083
  56.5966993  49.2293833  19.4124083  59.4566993  47.6233833  18.1164083
  58.6386993  47.3553833  18.2564083  59.4286993  48.4753833  18.3014083
  59.3316993  47.7103833  18.1644083  59.0566993  37.9363833  29.8754083
  58.1926993  38.0203833  29.9554083  59.2766993  37.4223833  30.5444083
  58.9616993  37.8733833  29.9864083  63.1596993  38.6843833  28.2494083
  62.4226993  38.2303833  28.3624083  63.7306993  38.2823833  28.7724083
  63.1346993  38.5573833  28.3434083  65.8916993  49.5323833  30.0374083
  66.0976993  49.8333833  30.8294083  65.8306993  50.2543833  29.5524083
  65.9126993  49.6833833  30.0824083  65.4256993  53.7463833  34.2834083
  64.6726993  53.7283833  33.8424083  65.5936993  54.5983833  34.3674083
  65.3396993  53.8693833  34.2304083  60.6626993  43.0133833  33.4534083
  60.3406993  42.4373833  32.8834083  60.3036993  43.7683833  33.2074083
  60.5626993  43.0393833  33.3334083  61.4586993  36.2653833  18.0804083
  61.5366993  36.5123833  17.2474083  60.7156993  36.6423833  18.3384083
  61.3606993  36.3573833  17.9954083  59.0976993  53.3693833  33.7014083
  59.1386993  53.4953833  34.5644083  59.7486993  52.8093833  33.5454083
  59.1996993  53.3053833  33.8064083  56.2766993  38.0193833  30.5234083
  55.9336993  37.2523833  30.2894083  55.5816993  38.5433833  30.5874083
  56.1236993  37.9833833  30.4984083  65.3226993  36.8753833  27.5004083
  65.9926993  37.4193833  27.6274083  64.8196993  37.2993833  26.9274083
  65.3476993  37.0183833  27.4344083  56.6906993  51.7523833  35.0614083
  57.2856993  52.1833833  35.5334083  56.3266993  52.3763833  34.5724083
  56.7246993  51.9083833  35.0584083  64.6816993  42.6833833  24.9934083
  65.2326993  42.0763833  25.2934083  64.2566993  42.9463833  25.7084083
  64.7006993  42.6323833  25.1424083  54.9296993  41.3333833  24.4794083
  54.5616993  41.6353833  25.2104083  55.4636993  40.7043833  24.7634083
  54.9536993  41.2853833  24.6294083  54.6176993  49.7413833  31.9904083
  54.0436993  50.1573833  32.4994083  55.3506993  50.2063833  32.0854083
  54.6416993  49.8713833  32.0794083  56.4036993  53.0083833  20.7654083
  56.2586993  53.1643833  19.9194083  57.2696993  53.0873833  20.8434083
  56.5106993  53.0433833  20.6524083  60.5706993  45.4053833  20.4934083
  60.6706993  45.5443833  19.6384083  61.3886993  45.3453833  20.7894083
  60.7056993  45.4163833  20.4104083  65.8056993  49.7343833  20.2954083
  65.5546993  49.6063833  21.1214083  65.4886993  49.0393833  19.8744083
  65.7216993  49.6133833  20.3554083  59.7096993  38.3803833  33.6094083
  59.9436993  37.8043833  32.9964083  58.8676993  38.1993833  33.7504083
  59.6196993  38.2683833  33.5394083  57.0906993  51.8233833  27.2424083
  57.0116993  51.0133833  26.9264083  56.6466993  52.3103833  26.6704083
  57.0136993  51.7753833  27.1114083  62.6916993  47.9423833  19.7254083
  63.4086993  47.5953833  19.3694083  62.6576993  48.7423833  19.3774083
  62.7926993  48.0093833  19.6214083  54.6626993  54.0673833  30.8234083
  55.1556993  54.0113833  31.5414083  54.8506993  53.3343833  30.3884083
  54.7636993  53.9503833  30.8654083  64.1006993  36.5833833   3.9641673
  63.8556993  37.0713833   3.2841673  64.9636993  36.5103833   3.8641673
  64.1916993  36.6443833   3.8491673  63.9096993  43.4993833   8.6351673
  63.3856993  44.0953833   8.9981673  64.3066993  43.1313833   9.3191673
  63.8906993  43.5333833   8.7901673  53.7786993  47.6393833   4.0911673
  53.3376993  47.7573833   4.8341673  53.4956993  46.8643833   3.8061673
  53.6716993  47.5423833   4.1591673  56.2876993  48.3353833   3.1701673
  56.8956993  48.1653833   3.7731673  55.5366993  48.1953833   3.5911673
  56.2666993  48.2893833   3.3211673  60.5696993  37.6703833   3.1191673
  60.4996993  38.3473833   2.5731673  61.3106993  37.2823833   2.8701673
  60.6686993  37.7133833   3.0011673  53.7186993  50.3743833  10.3461673
  53.8476993  50.0943833  11.1621673  53.1086993  49.8333833  10.0371673
  53.6476993  50.2533833  10.4211673  60.2926993  47.8993833  15.4131673
  60.0566993  47.8963833  16.2531673  59.5446993  47.7513833  14.9891673
  60.1466993  47.8763833  15.4741673  55.1646993  44.8953833   4.5481673
  54.7026993  44.5033833   3.9211673  55.8646993  44.3823833   4.6401673
  55.1996993  44.7623833   4.4691673  59.6726993  40.5053833   9.8951673
  60.3506993  40.5233833   9.3461673  59.6276993  39.6693833  10.1401673
  59.7656993  40.3843833   9.8501673  60.2746993  51.0913833  12.6761673
  60.4126993  51.8513833  12.2691673  61.0656993  50.7263833  12.7031673
  60.4116993  51.1503833  12.6201673  57.1656993  42.9953833   4.5711673
  57.9826993  42.8083833   4.8141673  56.6886993  42.3813833   4.9671673
  57.2156993  42.8773833   4.6661673  61.3696993  48.9763833   7.1811673
  61.7176993  48.1773833   7.2111673  62.0346993  49.4803833   6.9261673
  61.5196993  48.9323833   7.1481673  61.4266993  48.4253833   3.3921673
  61.7576993  47.7813833   3.8781673  61.6666993  48.2143833   2.5811673
  61.5106993  48.2993833   3.3441673  63.3946993  42.5563833  14.7311673
  62.5466993  42.4573833  14.5531673  63.4236993  43.3013833  15.1851673
  63.2736993  42.6523833  14.7721673  57.7626993  38.0893833   3.8371673
  57.4666993  38.5903833   3.1871673  58.6296993  38.1673833   3.7801673
  57.8466993  38.1753833   3.7331673  60.7416993  37.2313833   6.0601673
  60.8146993  38.0913833   6.1891673  60.7036993  37.1563833   5.1921673
  60.7466993  37.3473833   5.9511673  53.6206993  42.6563833   7.5611673
  53.3646993  43.4873833   7.4861673  52.9566993  42.2733833   7.9781673
  53.4846993  42.7223833   7.6121673  53.5306993  52.3663833   5.4611673
  52.9386993  52.9243833   5.1481673  53.9566993  52.0973833   4.7491673
  53.5066993  52.4083833   5.3101673  59.3706993  50.2103833   2.9411673
  58.7916993  49.9353833   3.5331673  59.9946993  49.6013833   2.9661673
  59.3776993  50.0803833   3.0321673  63.6816993  52.8903833   2.4531673
  63.8956993  53.4173833   3.1151673  64.4486993  52.7163833   2.0741673
  63.8266993  52.9423833   2.4951673  56.6496993  37.4733833   8.0521673
  56.1286993  36.8453833   7.7441673  57.2406993  37.0363833   8.5231673
  56.6606993  37.3153833   8.0761673  59.9556993  39.6063833  17.3501673
  60.0726993  39.1523833  16.6141673  60.2436993  40.4043833  17.1471673
  60.0156993  39.6573833  17.2111673  55.0756993  51.0363833   3.3921673
  55.7316993  50.4613833   3.4071673  55.4646993  51.7853833   3.1711673
  55.2306993  51.0613833   3.3621673  55.6886993  39.2033833  16.3341673
  54.9106993  38.8133833  16.2621673  56.1796993  38.7913833  15.7431673
  55.6456993  39.0843833  16.2361673  55.8936993  49.5233833   6.8921673
  56.3166993  49.1673833   6.2181673  56.2176993  49.1013833   7.5841673
  56.0036993  49.4083833   6.8951673  59.1246993  52.3753833   6.1881673
  59.9686993  52.4793833   5.9931673  58.8276993  53.1933833   6.2561673
  59.2056993  52.5113833   6.1691673  62.3376993  36.8463833  15.5021673
  62.5156993  36.0373833  15.2271673  62.1946993  37.2873833  14.7631673
  62.3426993  36.7923833  15.3521673  62.9316993  41.7723833   4.2751673
  63.2186993  41.5403833   3.4851673  63.6636993  41.8513833   4.7441673
  63.0816993  41.7493833   4.2281673  58.1226993  53.5943833  11.9281673
  58.4146993  53.5273833  12.7481673  57.4966993  52.9893833  11.8831673
  58.0736993  53.4953833  12.0431673  53.0366993  39.7513833  13.9201673
  53.0326993  40.3383833  14.5661673  53.6306993  40.0633833  13.3631673
  53.1236993  39.8843833  13.9331673  65.3746993  50.0853833  14.4621673
  65.3406993  50.4673833  15.2461673  66.2286993  50.0433833  14.2911673
  65.4956993  50.1353833  14.5531673  53.9736993  39.3463833   2.8351673
  53.8596993  38.4823833   2.8661673  53.4986993  39.6403833   3.5051673
  53.8866993  39.2623833   2.9381673  56.1156993  51.7563833  11.0501673
  55.4176993  51.2483833  11.1761673  56.3756993  51.5513833  10.2421673
  56.0506993  51.6513833  10.9491673  63.8266993  53.2493833  11.9601673
  64.5946993  53.1693833  11.5541673  63.2436993  53.1283833  11.3221673
  63.8536993  53.2193833  11.8061673  61.8756993  39.8623833   5.9931673
  61.9496993  40.4303833   5.3351673  61.9966993  40.3543833   6.7031673
  61.9036993  40.0193833   6.0011673  57.4766993  50.6073833  13.6171673
  58.3176993  50.6703833  13.3951673  57.4396993  51.0043833  14.3931673
  57.5956993  50.6753833  13.6991673  56.4836993  35.6853833   4.3411673
  57.0196993  36.3733833   4.3311673  56.4866993  35.4113833   3.5131673
  56.5626993  35.7463833   4.2171673  59.4396993  46.1183833   8.3661673
  59.6116993  45.9083833   9.1951673  58.7846993  45.5843833   8.1501673
  59.3686993  46.0083833   8.4571673  65.6676993  40.0323833  11.8811673
  65.5726993  40.3513833  12.6871673  65.0746993  39.3933833  11.8431673
  65.5656993  39.9843833  11.9951673  60.1896993  46.0563833  10.9561673
  60.2426993  46.9033833  11.1581673  59.9046993  45.6863833  11.6931673
  60.1556993  46.1263833  11.0941673  66.3666993  46.7513833  10.0861673
  65.8526993  46.3393833  10.6571673  66.2406993  47.5953833  10.2671673
  66.2726993  46.8153833  10.1971673  53.0106993  50.4273833  17.1671673
  53.7666993  50.7763833  17.4251673  53.1876993  49.5743833  17.1101673
  53.1486993  50.3523833  17.1971673  56.9316993  39.4953833   5.9951673
  57.2036993  39.0653833   5.2871673  56.7556993  38.8593833   6.5661673
  56.9456993  39.3383833   5.9751673  56.7556993  46.9223833   5.5441673
  57.6066993  46.8423833   5.3711673  56.3986993  46.2403833   5.1321673
  56.8286993  46.8093833   5.4571673  55.5226993  53.6473833   6.7811673
  54.8496993  53.1493833   6.5361673  55.9256993  53.8323833   6.0301673
  55.4826993  53.6013833   6.6341673  55.0726993  40.5973833   9.0771673
  55.9156993  40.8173833   9.0341673  54.6836993  41.1703833   8.5461673
  55.1396993  40.7143833   8.9921673  59.1236993  46.9293833   3.7791673
  59.8366993  47.4243833   3.8691673  59.3456993  46.3623833   3.1531673
  59.2616993  46.9183833   3.7001673  53.2796993  48.5723833   7.0991673
  52.6126993  49.0603833   7.3751673  53.9596993  49.1173833   7.1281673
  53.2816993  48.7243833   7.1441673  60.9266993  42.2823833  17.1951673
  60.4426993  42.8593833  17.6371673  60.8986993  42.5773833  16.3741673
  60.8506993  42.4113833  17.1391673  53.3456993  45.2563833   2.2021673
  53.1606993  44.4173833   2.3541673  54.0046993  45.2203833   1.6321673
  53.4156993  45.1273833   2.1401673  63.6466993  50.6323833   6.1061673
  63.1236993  51.2663833   5.8131673  63.9566993  50.2683833   5.3771673
  63.6146993  50.6723833   5.9551673  53.5176993  49.4203833   1.7771673
  54.0696993  49.9893833   2.1411673  53.2856993  48.9053833   2.4421673
  53.5646993  49.4283833   1.9291673  57.7216993  48.4203833   8.8661673
  58.1886993  48.7093833   9.5441673  58.2936993  47.9423833   8.4121673
  57.8756993  48.3923833   8.8991673  54.2876993  46.0903833   7.4101673
  54.7186993  45.9613833   6.6631673  54.0826993  46.9383833   7.3841673
  54.3206993  46.1963833   7.2961673  58.3716993  49.6063833   5.6921673
  58.4976993  50.4493833   5.8791673  59.0396993  49.2073833   6.0881673
  58.4896993  49.6723833   5.7781673  56.5016993  43.0893833  15.5541673
  55.9656993  42.5833833  16.0221673  56.5216993  42.6993833  14.7741673
  56.4246993  42.9563833  15.5081673  57.1536993  44.3163833   7.2931673
  56.3726993  44.2573833   6.9101673  57.2256993  43.5643833   7.7301673
  57.0486993  44.1973833   7.3011673  57.5836993  44.0533833  10.7611673
  57.6086993  43.3783833  10.2101673  56.9376993  44.5493833  10.4491673
  57.4926993  44.0263833  10.6341673  61.6836993  52.8303833  10.1531673
  61.4066993  52.1893833   9.6301673  61.4756993  53.5563833   9.7151673
  61.6126993  52.8433833  10.0111673  64.1236993  37.6723833  12.5861673
  64.2726993  36.8473833  12.3431673  64.5026993  37.7273833  13.3701673
  64.2016993  37.5583833  12.6661673  65.6716993  39.7353833   2.6681673
  66.1616993  40.4523833   2.5911673  64.8816993  39.9963833   2.4051673
  65.6276993  39.8793833   2.6181673  55.3826993  45.4083833  16.3201673
  55.3456993  45.9093833  15.6061673  55.7136993  44.6563833  16.0251673
  55.4256993  45.3703833  16.1711673  61.2816993  50.4583833  15.7551673
  61.6356993  50.2803833  16.5321673  60.8456993  49.7293833  15.5561673
  61.2696993  50.3243833  15.8411673  62.2536993  41.2053833   8.3931673
  62.7336993  41.9043833   8.6011673  62.6266993  40.5583833   8.8441673
  62.3796993  41.2133833   8.4901673  65.4596993  51.3103833   8.4921673
  64.8566993  51.0143833   7.9351673  66.0046993  51.7623833   7.9831673
  65.4506993  51.3333833   8.3341673  65.4726993  48.1613833   7.8921673
  64.6756993  48.3853833   8.1661673  65.7306993  47.5673833   8.4771673
  65.3926993  48.1063833   8.0191673  59.3646993  52.9733833   2.3401673
  59.2176993  52.1973833   2.7111673  60.0536993  52.8263833   1.8251673
  59.4446993  52.8363833   2.3191673  64.9236993  51.5083833  17.0151673
  65.0876993  51.7913833  17.8241673  65.1866993  52.1693833  16.5101673
  64.9866993  51.6483833  17.0601673  64.4636993  45.9653833  12.3381673
  64.3086993  46.5753833  12.9421673  64.9976993  45.4073833  12.7441673
  64.5196993  45.9733833  12.4871673  53.1546993  36.6843833   2.5391673
  53.2836993  35.9763833   2.0471673  52.7876993  36.3663833   3.2641673
  53.1196993  36.5323833   2.5741673  62.8476993  44.3653833   2.9961673
  62.9066993  45.0153833   3.5751673  62.6586993  43.6693833   3.4871673
  62.8286993  44.3583833   3.1541673  62.0706993  46.4123833   7.4271673
  61.2236993  46.2183833   7.5081673  62.3946993  46.2473833   8.2201673
  61.9926993  46.3593833   7.5561673  55.9186993  46.1053833   9.7431673
  56.6406993  46.5933833   9.7061673  55.6486993  46.0753833   8.9141673
  55.9856993  46.1733833   9.6151673  59.1486993  41.2763833   6.4781673
  59.9946993  41.0863833   6.5761673  58.7786993  40.4993833   6.3401673
  59.2186993  41.1333833   6.4721673  53.9696993  42.6143833   3.1331673
  54.4586993  42.3223833   3.7941673  54.0986993  42.0213833   2.5061673
  54.0606993  42.4833833   3.1381673  55.3136993  47.1573833  14.0211673
  54.8926993  46.6393833  13.4601673  54.9616993  47.9433833  13.8781673
  55.1996993  47.1973833  13.9171673  53.4296993  38.4793833   7.8651673
  53.4736993  38.8233833   7.0641673  54.1846993  38.7163833   8.2321673
  53.5476993  38.5653833   7.8011673  60.0526993  48.9683833  10.6391673
  59.7546993  49.5603833  11.2061673  60.1076993  49.4103833   9.8901673
  60.0166993  49.1213833  10.6121673  58.0316993  47.9183833  14.0371673
  57.2256993  47.6283833  14.2041673  57.9426993  48.7863833  14.0431673
  57.8996993  48.0033833  14.0621673  62.5686993  45.3913833  10.1301673
  63.0446993  45.7653833  10.7581673  61.7456993  45.5253833  10.3891673
  62.5176993  45.4663833  10.2611673  59.2786993  40.9943833  12.8711673
  59.4396993  40.2503833  13.2981673  59.2336993  40.7453833  12.0361673
  59.2956993  40.8473833  12.8111673  61.8326993  52.7843833   5.3581673
  62.3786993  53.4633833   5.4121673  61.4826993  52.8663833   4.5631673
  61.8616993  52.8973833   5.2481673  61.0306993  36.8023833  12.7511673
  61.7356993  37.1223833  12.3491673  61.2716993  35.9953833  12.9781673
  61.1696993  36.7303833  12.7251673  60.0156993  51.0123833   8.7471673
  59.3916993  51.5943833   8.5651673  60.2636993  50.7263833   7.9611673
  59.9596993  51.0563833   8.6041673  64.3246993  47.6463833  15.7361673
  65.0816993  47.9323833  15.4101673  63.7776993  47.6983833  15.0581673
  64.3556993  47.6963833  15.5871673  57.5396993  41.8553833   8.8121673
  57.9796993  41.7523833   8.0661673  58.0846993  41.5423833   9.4171673
  57.6846993  41.7943833   8.7911673  65.5556993  40.9573833  14.4041673
  64.9076993  41.4273833  14.7521673  66.1206993  40.8683833  15.0631673
  65.5436993  41.0133833  14.5531673  65.2436993  42.4943833  10.7021673
  65.5456993  42.9143833  11.4051673  65.2796993  41.6543833  10.9341673
  65.2936993  42.4323833  10.8401673  62.6686993  52.6613833  14.6271673
  63.1466993  52.0613833  14.2111673  62.3176993  52.2183833  15.2921673
  62.6876993  52.5073833  14.6641673  61.0866993  36.8403833   8.8591673
  60.2606993  36.6913833   9.0961673  61.0466993  36.8753833   7.9881673
  60.9586993  36.8233833   8.7651673  62.7276993  47.8803833  13.6471673
  61.9326993  47.8163833  13.9981673  62.7986993  48.7273833  13.4521673
  62.6206993  47.9953833  13.6701673  53.6516993  37.2383833  14.8941673
  53.5116993  38.0333833  14.5631673  52.8656993  36.9953833  15.1831673
  53.5146993  37.3203833  14.8881673  58.5576993  54.0873833   8.9641673
  58.5686993  54.1463833   9.8341673  58.1326993  53.3403833   8.8141673
  58.4966993  53.9853833   9.0701673  65.4726993  47.1353833   5.1631673
  65.5486993  47.4763833   5.9621673  65.6416993  46.2883833   5.2841673
  65.5086993  47.0603833   5.2991673  62.9946993  46.4093833   4.7281673
  62.6966993  46.0943833   5.4851673  63.6896993  46.8823833   4.9631673
  63.0536993  46.4323833   4.8751673  63.2166993  50.5273833  12.7551673
  63.9036993  50.4133833  13.2801673  63.3506993  51.3183833  12.4111673
  63.3376993  50.6273833  12.7821673  55.3216993  53.5853833  14.4061673
  54.6676993  53.0163833  14.5041673  54.9466993  54.3583833  14.5571673
  55.1696993  53.6153833  14.4431673  63.8396993  44.9913833  16.3291673
  64.1626993  45.6773833  15.8971673  63.1356993  45.3143833  16.7311673
  63.7826993  45.1403833  16.3241673  63.6246993  48.4553833  10.1881673
  62.9306993  48.8573833  10.5311673  64.3016993  48.8883833  10.5271673
  63.6216993  48.5783833  10.2891673  56.6926993  41.9933833  12.5351673
  57.0676993  42.6123833  12.0481673  57.3666993  41.5193833  12.8201673
  56.8476993  42.0153833  12.5051673  54.4676993  40.4413833  11.8101673
  54.5446993  40.2723833  10.9571673  55.2136993  40.8473833  12.0071673
  54.5886993  40.4763833  11.7131673  57.0216993  37.8513833  14.2211673
  56.9406993  37.0073833  14.4271673  56.7076993  37.8953833  13.4081673
  56.9636993  37.7333833  14.1311673  63.9466993  50.0463833   3.3571673
  63.7416993  50.8793833   3.1981673  63.1716993  49.6643833   3.4791673
  63.8016993  50.1133833   3.3521673  53.8646993  45.6673833  12.0341673
  54.1846993  45.8863833  11.2531673  53.7646993  44.8023833  11.9791673
  53.8966993  45.5723833  11.9111673  65.0076993  38.0273833  15.3881673
  65.0996993  38.7393833  15.8821673  64.3706993  37.5823833  15.7851673
  64.9266993  38.0663833  15.5201673  64.0016993  38.2173833   6.2421673
  63.3016993  38.7353833   6.1861673  64.0396993  37.8373833   5.4581673
  63.9036993  38.2383833   6.1181673  58.6276993  44.9593833  13.4191673
  58.2316993  45.7333833  13.4941673  58.2216993  44.5863833  12.7431673
  58.5096993  45.0183833  13.3301673  59.0566993  37.9363833  10.8691673
  58.1926993  38.0203833  10.9491673  59.2766993  37.4223833  11.5381673
  58.9616993  37.8733833  10.9801673  63.1596993  38.6843833   9.2431673
  62.4226993  38.2303833   9.3561673  63.7306993  38.2823833   9.7661673
  63.1346993  38.5573833   9.3371673  65.8916993  49.5323833  11.0311673
  66.0976993  49.8333833  11.8231673  65.8306993  50.2543833  10.5461673
  65.9126993  49.6833833  11.0761673  65.4256993  53.7463833  15.2771673
  64.6726993  53.7283833  14.8361673  65.5936993  54.5983833  15.3611673
  65.3396993  53.8693833  15.2241673  60.6626993  43.0133833  14.4471673
  60.3406993  42.4373833  13.8771673  60.3036993  43.7683833  14.2011673
  60.5626993  43.0393833  14.3271673  59.0976993  53.3693833  14.6951673
  59.1386993  53.4953833  15.5581673  59.7486993  52.8093833  14.5391673
  59.1996993  53.3053833  14.8001673  56.2766993  38.0193833  11.5171673
  55.9336993  37.2523833  11.2831673  55.5816993  38.5433833  11.5811673
  56.1236993  37.9833833  11.4921673  65.3226993  36.8753833   8.4941673
  65.9926993  37.4193833   8.6211673  64.8196993  37.2993833   7.9211673
  65.3476993  37.0183833   8.4281673  56.6906993  51.7523833  16.0551673
  57.2856993  52.1833833  16.5271673  56.3266993  52.3763833  15.5661673
  56.7246993  51.9083833  16.0521673  64.6816993  42.6833833   5.9871673
  65.2326993  42.0763833   6.2871673  64.2566993  42.9463833   6.7021673
  64.7006993  42.6323833   6.1361673  54.9296993  41.3333833   5.4731673
  54.5616993  41.6353833   6.2041673  55.4636993  40.7043833   5.7571673
  54.9536993  41.2853833   5.6231673  54.6176993  49.7413833  12.9841673
  54.0436993  50.1573833  13.4931673  55.3506993  50.2063833  13.0791673
  54.6416993  49.8713833  13.0731673  59.7096993  38.3803833  14.6031673
  59.9436993  37.8043833  13.9901673  58.8676993  38.1993833  14.7441673
  59.6196993  38.2683833  14.5331673  57.0906993  51.8233833   8.2361673
  57.0116993  51.0133833   7.9201673  56.6466993  52.3103833   7.6641673
  57.0136993  51.7753833   8.1051673  54.6626993  54.0673833  11.8171673
  55.1556993  54.0113833  12.5351673  54.8506993  53.3343833  11.3821673
  54.7636993  53.9503833  11.8591673  64.1006993  18.1052753  79.9891313
  63.8556993  18.5932753  79.3091313  64.9636993  18.0322753  79.8891313
  64.1916993  18.1662753  79.8741313  63.9096993  25.0212753  84.6601313
  63.3856993  25.6172753  85.0231313  64.3066993  24.6532753  85.3441313
  63.8906993  25.0552753  84.8151313  53.7786993  29.1612753  80.1161313
  53.3376993  29.2792753  80.8591313  53.4956993  28.3862753  79.8311313
  53.6716993  29.0642753  80.1841313  53.5216993  22.9532753  76.6231313
  52.7436993  23.1152753  76.2631313  53.5606993  22.0822753  76.6451313
  53.4126993  22.8482753  76.5731313  56.6606993  28.2162753  75.2951313
  56.2686993  27.8452753  74.6091313  56.5806993  27.6182753  75.9241313
  56.5906993  28.0732753  75.2861313  56.2876993  29.8572753  79.1951313
  56.8956993  29.6872753  79.7981313  55.5366993  29.7172753  79.6161313
  56.2666993  29.8112753  79.3461313  60.5696993  19.1922753  79.1441313
  60.4996993  19.8692753  78.5981313  61.3106993  18.8042753  78.8951313
  60.6686993  19.2352753  79.0261313  55.1786993  32.9482753  75.2721313
  55.6456993  33.0322753  74.5401313  55.6336993  32.3702753  75.7411313
  55.3146993  32.8752753  75.2331313  53.7186993  31.8962753  86.3711313
  53.8476993  31.6162753  87.1871313  53.1086993  31.3552753  86.0621313
  53.6476993  31.7752753  86.4461313  55.1646993  26.4172753  80.5731313
  54.7026993  26.0252753  79.9461313  55.8646993  25.9042753  80.6651313
  55.1996993  26.2842753  80.4941313  59.6726993  22.0272753  85.9201313
  60.3506993  22.0452753  85.3711313  59.6276993  21.1912753  86.1651313
  59.7656993  21.9062753  85.8751313  60.2746993  32.6132753  88.7011313
  60.4126993  33.3732753  88.2941313  61.0656993  32.2482753  88.7281313
  60.4116993  32.6722753  88.6451313  57.1656993  24.5172753  80.5961313
  57.9826993  24.3302753  80.8391313  56.6886993  23.9032753  80.9921313
  57.2156993  24.3992753  80.6911313  61.3696993  30.4982753  83.2061313
  61.7176993  29.6992753  83.2361313  62.0346993  31.0022753  82.9511313
  61.5196993  30.4542753  83.1731313  61.4266993  29.9472753  79.4171313
  61.7576993  29.3032753  79.9031313  61.6666993  29.7362753  78.6061313
  61.5106993  29.8212753  79.3691313  57.7626993  19.6112753  79.8621313
  57.4666993  20.1122753  79.2121313  58.6296993  19.6892753  79.8051313
  57.8466993  19.6972753  79.7581313  60.7416993  18.7532753  82.0851313
  60.8146993  19.6132753  82.2141313  60.7036993  18.6782753  81.2171313
  60.7466993  18.8692753  81.9761313  65.4146993  21.6792753  74.3841313
  64.9646993  22.3602753  74.6911313  65.5286993  21.1752753  75.0871313
  65.3656993  21.7052753  74.5331313  53.6206993  24.1782753  83.5861313
  53.3646993  25.0092753  83.5111313  52.9566993  23.7952753  84.0031313
  53.4846993  24.2442753  83.6371313  53.5306993  33.8882753  81.4861313
  52.9386993  34.4462753  81.1731313  53.9566993  33.6192753  80.7741313
  53.5066993  33.9302753  81.3351313  59.3706993  31.7322753  78.9661313
  58.7916993  31.4572753  79.5581313  59.9946993  31.1232753  78.9911313
  59.3776993  31.6022753  79.0571313  65.5136993  34.0202753  76.4881313
  66.2406993  34.4922753  76.5901313  65.7426993  33.2262753  76.7681313
  65.6556993  33.9732753  76.5451313  63.6816993  34.4122753  78.4781313
  63.8956993  34.9392753  79.1401313  64.4486993  34.2382753  78.0991313
  63.8266993  34.4642753  78.5201313  56.6496993  18.9952753  84.0771313
  56.1286993  18.3672753  83.7691313  57.2406993  18.5582753  84.5481313
  56.6606993  18.8372753  84.1011313  55.0756993  32.5582753  79.4171313
  55.7316993  31.9832753  79.4321313  55.4646993  33.3072753  79.1961313
  55.2306993  32.5832753  79.3871313  55.8936993  31.0452753  82.9171313
  56.3166993  30.6892753  82.2431313  56.2176993  30.6232753  83.6091313
  56.0036993  30.9302753  82.9201313  59.1246993  33.8972753  82.2131313
  59.9686993  34.0012753  82.0181313  58.8276993  34.7152753  82.2811313
  59.2056993  34.0332753  82.1941313  62.9316993  23.2942753  80.3001313
  63.2186993  23.0622753  79.5101313  63.6636993  23.3732753  80.7691313
  63.0816993  23.2712753  80.2531313  63.6536993  23.6332753  75.4211313
  63.9346993  24.4212753  75.6701313  62.8776993  23.7982753  75.0581313
  63.5806993  23.7742753  75.4041313  58.1226993  35.1162753  87.9531313
  58.4146993  35.0492753  88.7731313  57.4966993  34.5112753  87.9081313
  58.0736993  35.0172753  88.0681313  62.5126993  31.8042753  75.2371313
  62.3316993  32.3492753  75.8941313  63.2786993  32.0942753  74.9361313
  62.5986993  31.9282753  75.2901313  53.9736993  20.8682753  78.8601313
  53.8596993  20.0042753  78.8911313  53.4986993  21.1622753  79.5301313
  53.8866993  20.7842753  78.9631313  56.1156993  33.2782753  87.0751313
  55.4176993  32.7702753  87.2011313  56.3756993  33.0732753  86.2671313
  56.0506993  33.1732753  86.9741313  63.2776993  22.0762753  77.6051313
  62.7696993  21.4142753  77.3511313  63.3296993  22.5802753  76.8951313
  63.2106993  22.0532753  77.4631313  63.8266993  34.7712753  87.9851313
  64.5946993  34.6912753  87.5791313  63.2436993  34.6502753  87.3471313
  63.8536993  34.7412753  87.8311313  63.2776993  19.0172753  77.4961313
  62.8226993  18.6152753  76.8701313  64.0506993  19.1722753  77.1211313
  63.3246993  18.9812753  77.3481313  61.8756993  21.3842753  82.0181313
  61.9496993  21.9522753  81.3601313  61.9966993  21.8762753  82.7281313
  61.9036993  21.5412753  82.0261313  56.4836993  17.2072753  80.3661313
  57.0196993  17.8952753  80.3561313  56.4866993  16.9332753  79.5381313
  56.5626993  17.2682753  80.2421313  59.4396993  27.6402753  84.3911313
  59.6116993  27.4302753  85.2201313  58.7846993  27.1062753  84.1751313
  59.3686993  27.5302753  84.4821313  65.6676993  21.5542753  87.9061313
  65.5726993  21.8732753  88.7121313  65.0746993  20.9152753  87.8681313
  65.5656993  21.5062753  88.0201313  60.1896993  27.5782753  86.9811313
  60.2426993  28.4252753  87.1831313  59.9046993  27.2082753  87.7181313
  60.1556993  27.6482753  87.1191313  66.3666993  28.2732753  86.1111313
  65.8526993  27.8612753  86.6821313  66.2406993  29.1172753  86.2921313
  66.2726993  28.3372753  86.2221313  56.9316993  21.0172753  82.0201313
  57.2036993  20.5872753  81.3121313  56.7556993  20.3812753  82.5911313
  56.9456993  20.8602753  82.0001313  56.7556993  28.4442753  81.5691313
  57.6066993  28.3642753  81.3961313  56.3986993  27.7622753  81.1571313
  56.8286993  28.3312753  81.4821313  55.5226993  35.1692753  82.8061313
  54.8496993  34.6712753  82.5611313  55.9256993  35.3542753  82.0551313
  55.4826993  35.1232753  82.6591313  55.0726993  22.1192753  85.1021313
  55.9156993  22.3392753  85.0591313  54.6836993  22.6922753  84.5711313
  55.1396993  22.2362753  85.0171313  59.1236993  28.4512753  79.8041313
  59.8366993  28.9462753  79.8941313  59.3456993  27.8842753  79.1781313
  59.2616993  28.4402753  79.7251313  53.2796993  30.0942753  83.1241313
  52.6126993  30.5822753  83.4001313  53.9596993  30.6392753  83.1531313
  53.2816993  30.2462753  83.1691313  53.3456993  26.7782753  78.2271313
  53.1606993  25.9392753  78.3791313  54.0046993  26.7422753  77.6571313
  53.4156993  26.6492753  78.1651313  63.6466993  32.1542753  82.1311313
  63.1236993  32.7882753  81.8381313  63.9566993  31.7902753  81.4021313
  63.6146993  32.1942753  81.9801313  53.5176993  30.9422753  77.8021313
  54.0696993  31.5112753  78.1661313  53.2856993  30.4272753  78.4671313
  53.5646993  30.9502753  77.9541313  57.7216993  29.9422753  84.8911313
  58.1886993  30.2312753  85.5691313  58.2936993  29.4642753  84.4371313
  57.8756993  29.9142753  84.9241313  53.3476993  29.3912753  75.4301313
  54.1036993  28.9592753  75.4881313  53.3626993  29.9232753  76.1211313
  53.4616993  29.4062753  75.5411313  54.2876993  27.6122753  83.4351313
  54.7186993  27.4832753  82.6881313  54.0826993  28.4602753  83.4091313
  54.3206993  27.7182753  83.3211313  60.6336993  21.1762753  77.0851313
  60.6316993  21.0592753  76.2201313  60.4526993  22.0242753  77.1771313
  60.6066993  21.2842753  76.9711313  58.3716993  31.1282753  81.7171313
  58.4976993  31.9712753  81.9041313  59.0396993  30.7292753  82.1131313
  58.4896993  31.1942753  81.8031313  56.9866993  24.0082753  76.7191313
  56.8586993  23.5602753  77.4571313  56.4046993  23.6662753  76.1671313
  56.8816993  23.8912753  76.7471313  57.1536993  25.8382753  83.3181313
  56.3726993  25.7792753  82.9351313  57.2256993  25.0862753  83.7551313
  57.0486993  25.7192753  83.3261313  57.5836993  25.5752753  86.7861313
  57.6086993  24.9002753  86.2351313  56.9376993  26.0712753  86.4741313
  57.4926993  25.5482753  86.6591313  61.6836993  34.3522753  86.1781313
  61.4066993  33.7112753  85.6551313  61.4756993  35.0782753  85.7401313
  61.6126993  34.3652753  86.0361313  64.1236993  19.1942753  88.6111313
  64.2726993  18.3692753  88.3681313  64.5026993  19.2492753  89.3951313
  64.2016993  19.0802753  88.6911313  65.6716993  21.2572753  78.6931313
  66.1616993  21.9742753  78.6161313  64.8816993  21.5182753  78.4301313
  65.6276993  21.4012753  78.6431313  62.2536993  22.7272753  84.4181313
  62.7336993  23.4262753  84.6261313  62.6266993  22.0802753  84.8691313
  62.3796993  22.7352753  84.5151313  64.4426993  25.8962753  76.6921313
  64.4346993  26.6182753  76.2021313  63.8036993  26.0312753  77.2691313
  64.3476993  26.0232753  76.7051313  65.4596993  32.8322753  84.5171313
  64.8566993  32.5362753  83.9601313  66.0046993  33.2842753  84.0081313
  65.4506993  32.8552753  84.3591313  65.4726993  29.6832753  83.9171313
  64.6756993  29.9072753  84.1911313  65.7306993  29.0892753  84.5021313
  65.3926993  29.6282753  84.0441313  59.3646993  34.4952753  78.3651313
  59.2176993  33.7192753  78.7361313  60.0536993  34.3482753  77.8501313
  59.4446993  34.3582753  78.3441313  59.0356993  18.2382753  76.3531313
  59.1326993  18.1312753  77.2141313  58.3276993  18.7442753  76.2881313
  58.9456993  18.2972753  76.4711313  61.6566993  34.0112753  76.7671313
  62.2786993  34.1742753  77.3571313  61.6926993  34.7022753  76.2351313
  61.7536993  34.1372753  76.7761313  56.1576993  26.5452753  77.5961313
  56.4816993  25.7662753  77.3741313  56.8036993  26.9132753  78.0511313
  56.3006993  26.4842753  77.6301313  64.4636993  27.4872753  88.3631313
  64.3086993  28.0972753  88.9671313  64.9976993  26.9292753  88.7691313
  64.5196993  27.4952753  88.5121313  53.1546993  18.2062753  78.5641313
  53.2836993  17.4982753  78.0721313  52.7876993  17.8882753  79.2891313
  53.1196993  18.0542753  78.5991313  62.8476993  25.8872753  79.0211313
  62.9066993  26.5372753  79.6001313  62.6586993  25.1912753  79.5121313
  62.8286993  25.8802753  79.1791313  57.3436993  20.4042753  75.5331313
  56.8326993  20.4572753  74.8271313  58.1276993  20.6442753  75.2371313
  57.3836993  20.4472753  75.3851313  62.0706993  27.9342753  83.4521313
  61.2236993  27.7402753  83.5331313  62.3946993  27.7692753  84.2451313
  61.9926993  27.8812753  83.5811313  58.8226993  34.6642753  74.3381313
  59.2616993  33.9672753  74.6261313  59.0296993  35.2882753  74.9111313
  58.9186993  34.6532753  74.4651313  55.9186993  27.6272753  85.7681313
  56.6406993  28.1152753  85.7311313  55.6486993  27.5972753  84.9391313
  55.9856993  27.6952753  85.6401313  59.1486993  22.7982753  82.5031313
  59.9946993  22.6082753  82.6011313  58.7786993  22.0212753  82.3651313
  59.2186993  22.6552753  82.4971313  53.9696993  24.1362753  79.1581313
  54.4586993  23.8442753  79.8191313  54.0986993  23.5432753  78.5311313
  54.0606993  24.0052753  79.1631313  58.4946993  25.5702753  74.6441313
  57.8846993  25.1652753  75.1181313  58.1086993  25.6882753  73.8711313
  58.3476993  25.5272753  74.6001313  55.3136993  28.6792753  90.0461313
  54.8926993  28.1612753  89.4851313  54.9616993  29.4652753  89.9031313
  55.1996993  28.7192753  89.9421313  59.9496993  24.0312753  77.3541313
  60.2216993  24.8572753  77.4211313  59.0866993  24.1062753  77.2581313
  59.8626993  24.1642753  77.3491313  53.4296993  20.0012753  83.8901313
  53.4736993  20.3452753  83.0891313  54.1846993  20.2382753  84.2571313
  53.5476993  20.0872753  83.8261313  65.3706993  29.3402753  75.3601313
  66.0546993  28.8262753  75.1911313  64.9536993  29.3862753  74.5951313
  65.4096993  29.2712753  75.2221313  60.0526993  30.4902753  86.6641313
  59.7546993  31.0822753  87.2311313  60.1076993  30.9322753  85.9151313
  60.0166993  30.6432753  86.6371313  62.5686993  26.9132753  86.1551313
  63.0446993  27.2872753  86.7831313  61.7456993  27.0472753  86.4141313
  62.5176993  26.9882753  86.2861313  59.2786993  22.5162753  88.8961313
  59.4396993  21.7722753  89.3231313  59.2336993  22.2672753  88.0611313
  59.2956993  22.3692753  88.8361313  61.8326993  34.3062753  81.3831313
  62.3786993  34.9852753  81.4371313  61.4826993  34.3882753  80.5881313
  61.8616993  34.4192753  81.2731313  61.0306993  18.3242753  88.7761313
  61.7356993  18.6442753  88.3741313  61.2716993  17.5172753  89.0031313
  61.1696993  18.2522753  88.7501313  60.0156993  32.5342753  84.7721313
  59.3916993  33.1162753  84.5901313  60.2636993  32.2482753  83.9861313
  59.9596993  32.5782753  84.6291313  61.6096993  27.3102753  74.6871313
  60.8046993  27.1332753  74.4021313  61.5766993  28.1612753  74.8791313
  61.4856993  27.4092753  74.6741313  57.5396993  23.3772753  84.8371313
  57.9796993  23.2742753  84.0911313  58.0846993  23.0642753  85.4421313
  57.6846993  23.3162753  84.8161313  65.2436993  24.0162753  86.7271313
  65.5456993  24.4362753  87.4301313  65.2796993  23.1762753  86.9591313
  65.2936993  23.9542753  86.8651313  61.0866993  18.3622753  84.8841313
  60.2606993  18.2132753  85.1211313  61.0466993  18.3972753  84.0131313
  60.9586993  18.3452753  84.7901313  62.7276993  29.4022753  89.6721313
  61.9326993  29.3382753  90.0231313  62.7986993  30.2492753  89.4771313
  62.6206993  29.5172753  89.6951313  58.5576993  35.6092753  84.9891313
  58.5686993  35.6682753  85.8591313  58.1326993  34.8622753  84.8391313
  58.4966993  35.5072753  85.0951313  56.7156993  21.5042753  78.1441313
  56.8416993  21.1752753  77.3461313  55.9036993  21.2552753  78.3431313
  56.6146993  21.4192753  78.0561313  65.4726993  28.6572753  81.1881313
  65.5486993  28.9982753  81.9871313  65.6416993  27.8102753  81.3091313
  65.5086993  28.5822753  81.3241313  62.9946993  27.9312753  80.7531313
  62.6966993  27.6162753  81.5101313  63.6896993  28.4042753  80.9881313
  63.0536993  27.9542753  80.9001313  63.2166993  32.0492753  88.7801313
  63.9036993  31.9352753  89.3051313  63.3506993  32.8402753  88.4361313
  63.3376993  32.1492753  88.8071313  63.6246993  29.9772753  86.2131313
  62.9306993  30.3792753  86.5561313  64.3016993  30.4102753  86.5521313
  63.6216993  30.1002753  86.3141313  56.6926993  23.5152753  88.5601313
  57.0676993  24.1342753  88.0731313  57.3666993  23.0412753  88.8451313
  56.8476993  23.5372753  88.5301313  54.4676993  21.9632753  87.8351313
  54.5446993  21.7942753  86.9821313  55.2136993  22.3692753  88.0321313
  54.5886993  21.9982753  87.7381313  63.9466993  31.5682753  79.3821313
  63.7416993  32.4012753  79.2231313  63.1716993  31.1862753  79.5041313
  63.8016993  31.6352753  79.3771313  53.8646993  27.1892753  88.0591313
  54.1846993  27.4082753  87.2781313  53.7646993  26.3242753  88.0041313
  53.8966993  27.0942753  87.9361313  55.3206993  23.1252753  74.6771313
  54.6486993  23.1392753  75.2331313  55.4156993  22.2772753  74.4931313
  55.2356993  23.0022753  74.7321313  64.0016993  19.7392753  82.2671313
  63.3016993  20.2572753  82.2111313  64.0396993  19.3592753  81.4831313
  63.9036993  19.7602753  82.1431313  59.3086993  31.8302753  75.7911313
  59.7496993  31.9102753  76.5391313  58.5036993  31.6142753  76.0491313
  59.2546993  31.8102753  75.9401313  58.6276993  26.4812753  89.4441313
  58.2316993  27.2552753  89.5191313  58.2216993  26.1082753  88.7681313
  58.5096993  26.5402753  89.3551313  56.6376993  30.9002753  76.3921313
  56.3936993  30.5932753  77.1721313  56.6046993  30.1972753  75.8761313
  56.5966993  30.7512753  76.4311313  59.4566993  29.1452753  75.1351313
  58.6386993  28.8772753  75.2751313  59.4286993  29.9972753  75.3201313
  59.3316993  29.2322753  75.1831313  59.0566993  19.4582753  86.8941313
  58.1926993  19.5422753  86.9741313  59.2766993  18.9442753  87.5631313
  58.9616993  19.3952753  87.0051313  63.1596993  20.2062753  85.2681313
  62.4226993  19.7522753  85.3811313  63.7306993  19.8042753  85.7911313
  63.1346993  20.0792753  85.3621313  65.8916993  31.0542753  87.0561313
  66.0976993  31.3552753  87.8481313  65.8306993  31.7762753  86.5711313
  65.9126993  31.2052753  87.1011313  61.4586993  17.7872753  75.0991313
  61.5366993  18.0342753  74.2661313  60.7156993  18.1642753  75.3571313
  61.3606993  17.8792753  75.0141313  56.2766993  19.5412753  87.5421313
  55.9336993  18.7742753  87.3081313  55.5816993  20.0652753  87.6061313
  56.1236993  19.5052753  87.5171313  65.3226993  18.3972753  84.5191313
  65.9926993  18.9412753  84.6461313  64.8196993  18.8212753  83.9461313
  65.3476993  18.5402753  84.4531313  64.6816993  24.2052753  82.0121313
  65.2326993  23.5982753  82.3121313  64.2566993  24.4682753  82.7271313
  64.7006993  24.1542753  82.1611313  54.9296993  22.8552753  81.4981313
  54.5616993  23.1572753  82.2291313  55.4636993  22.2262753  81.7821313
  54.9536993  22.8072753  81.6481313  54.6176993  31.2632753  89.0091313
  54.0436993  31.6792753  89.5181313  55.3506993  31.7282753  89.1041313
  54.6416993  31.3932753  89.0981313  56.4036993  34.5302753  77.7841313
  56.2586993  34.6862753  76.9381313  57.2696993  34.6092753  77.8621313
  56.5106993  34.5652753  77.6711313  60.5706993  26.9272753  77.5121313
  60.6706993  27.0662753  76.6571313  61.3886993  26.8672753  77.8081313
  60.7056993  26.9382753  77.4291313  65.8056993  31.2562753  77.3141313
  65.5546993  31.1282753  78.1401313  65.4886993  30.5612753  76.8931313
  65.7216993  31.1352753  77.3741313  57.0906993  33.3452753  84.2611313
  57.0116993  32.5352753  83.9451313  56.6466993  33.8322753  83.6891313
  57.0136993  33.2972753  84.1301313  62.6916993  29.4642753  76.7441313
  63.4086993  29.1172753  76.3881313  62.6576993  30.2642753  76.3961313
  62.7926993  29.5312753  76.6401313  54.6626993  35.5892753  87.8421313
  55.1556993  35.5332753  88.5601313  54.8506993  34.8562753  87.4071313
  54.7636993  35.4722753  87.8841313  64.1006993  18.1052753  60.9828903
  63.8556993  18.5932753  60.3028903  64.9636993  18.0322753  60.8828903
  64.1916993  18.1662753  60.8678903  63.9096993  25.0212753  65.6538903
  63.3856993  25.6172753  66.0168903  64.3066993  24.6532753  66.3378903
  63.8906993  25.0552753  65.8088903  53.7786993  29.1612753  61.1098903
  53.3376993  29.2792753  61.8528903  53.4956993  28.3862753  60.8248903
  53.6716993  29.0642753  61.1778903  53.5216993  22.9532753  57.6168903
  52.7436993  23.1152753  57.2568903  53.5606993  22.0822753  57.6388903
  53.4126993  22.8482753  57.5668903  56.6606993  28.2162753  56.2888903
  56.2686993  27.8452753  55.6028903  56.5806993  27.6182753  56.9178903
  56.5906993  28.0732753  56.2798903  56.2876993  29.8572753  60.1888903
  56.8956993  29.6872753  60.7918903  55.5366993  29.7172753  60.6098903
  56.2666993  29.8112753  60.3398903  60.5696993  19.1922753  60.1378903
  60.4996993  19.8692753  59.5918903  61.3106993  18.8042753  59.8888903
  60.6686993  19.2352753  60.0198903  55.1786993  32.9482753  56.2658903
  55.6456993  33.0322753  55.5338903  55.6336993  32.3702753  56.7348903
  55.3146993  32.8752753  56.2268903  53.7186993  31.8962753  67.3648903
  53.8476993  31.6162753  68.1808903  53.1086993  31.3552753  67.0558903
  53.6476993  31.7752753  67.4398903  60.2926993  29.4212753  72.4318903
  60.0566993  29.4182753  73.2718903  59.5446993  29.2732753  72.0078903
  60.1466993  29.3982753  72.4928903  55.1646993  26.4172753  61.5668903
  54.7026993  26.0252753  60.9398903  55.8646993  25.9042753  61.6588903
  55.1996993  26.2842753  61.4878903  59.6726993  22.0272753  66.9138903
  60.3506993  22.0452753  66.3648903  59.6276993  21.1912753  67.1588903
  59.7656993  21.9062753  66.8688903  60.2746993  32.6132753  69.6948903
  60.4126993  33.3732753  69.2878903  61.0656993  32.2482753  69.7218903
  60.4116993  32.6722753  69.6388903  57.1656993  24.5172753  61.5898903
  57.9826993  24.3302753  61.8328903  56.6886993  23.9032753  61.9858903
  57.2156993  24.3992753  61.6848903  61.3696993  30.4982753  64.1998903
  61.7176993  29.6992753  64.2298903  62.0346993  31.0022753  63.9448903
  61.5196993  30.4542753  64.1668903  61.4266993  29.9472753  60.4108903
  61.7576993  29.3032753  60.8968903  61.6666993  29.7362753  59.5998903
  61.5106993  29.8212753  60.3628903  63.3946993  24.0782753  71.7498903
  62.5466993  23.9792753  71.5718903  63.4236993  24.8232753  72.2038903
  63.2736993  24.1742753  71.7908903  57.7626993  19.6112753  60.8558903
  57.4666993  20.1122753  60.2058903  58.6296993  19.6892753  60.7988903
  57.8466993  19.6972753  60.7518903  60.7416993  18.7532753  63.0788903
  60.8146993  19.6132753  63.2078903  60.7036993  18.6782753  62.2108903
  60.7466993  18.8692753  62.9698903  65.4146993  21.6792753  55.3778903
  64.9646993  22.3602753  55.6848903  65.5286993  21.1752753  56.0808903
  65.3656993  21.7052753  55.5268903  53.6206993  24.1782753  64.5798903
  53.3646993  25.0092753  64.5048903  52.9566993  23.7952753  64.9968903
  53.4846993  24.2442753  64.6308903  53.5306993  33.8882753  62.4798903
  52.9386993  34.4462753  62.1668903  53.9566993  33.6192753  61.7678903
  53.5066993  33.9302753  62.3288903  59.3706993  31.7322753  59.9598903
  58.7916993  31.4572753  60.5518903  59.9946993  31.1232753  59.9848903
  59.3776993  31.6022753  60.0508903  65.5136993  34.0202753  57.4818903
  66.2406993  34.4922753  57.5838903  65.7426993  33.2262753  57.7618903
  65.6556993  33.9732753  57.5388903  63.6816993  34.4122753  59.4718903
  63.8956993  34.9392753  60.1338903  64.4486993  34.2382753  59.0928903
  63.8266993  34.4642753  59.5138903  56.6496993  18.9952753  65.0708903
  56.1286993  18.3672753  64.7628903  57.2406993  18.5582753  65.5418903
  56.6606993  18.8372753  65.0948903  59.9556993  21.1282753  74.3688903
  60.0726993  20.6742753  73.6328903  60.2436993  21.9262753  74.1658903
  60.0156993  21.1792753  74.2298903  55.0756993  32.5582753  60.4108903
  55.7316993  31.9832753  60.4258903  55.4646993  33.3072753  60.1898903
  55.2306993  32.5832753  60.3808903  55.6886993  20.7252753  73.3528903
  54.9106993  20.3352753  73.2808903  56.1796993  20.3132753  72.7618903
  55.6456993  20.6062753  73.2548903  55.8936993  31.0452753  63.9108903
  56.3166993  30.6892753  63.2368903  56.2176993  30.6232753  64.6028903
  56.0036993  30.9302753  63.9138903  59.1246993  33.8972753  63.2068903
  59.9686993  34.0012753  63.0118903  58.8276993  34.7152753  63.2748903
  59.2056993  34.0332753  63.1878903  62.3376993  18.3682753  72.5208903
  62.5156993  17.5592753  72.2458903  62.1946993  18.8092753  71.7818903
  62.3426993  18.3142753  72.3708903  62.9316993  23.2942753  61.2938903
  63.2186993  23.0622753  60.5038903  63.6636993  23.3732753  61.7628903
  63.0816993  23.2712753  61.2468903  63.6536993  23.6332753  56.4148903
  63.9346993  24.4212753  56.6638903  62.8776993  23.7982753  56.0518903
  63.5806993  23.7742753  56.3978903  58.1226993  35.1162753  68.9468903
  58.4146993  35.0492753  69.7668903  57.4966993  34.5112753  68.9018903
  58.0736993  35.0172753  69.0618903  53.0366993  21.2732753  70.9388903
  53.0326993  21.8602753  71.5848903  53.6306993  21.5852753  70.3818903
  53.1236993  21.4062753  70.9518903  65.3746993  31.6072753  71.4808903
  65.3406993  31.9892753  72.2648903  66.2286993  31.5652753  71.3098903
  65.4956993  31.6572753  71.5718903  62.5126993  31.8042753  56.2308903
  62.3316993  32.3492753  56.8878903  63.2786993  32.0942753  55.9298903
  62.5986993  31.9282753  56.2838903  53.9736993  20.8682753  59.8538903
  53.8596993  20.0042753  59.8848903  53.4986993  21.1622753  60.5238903
  53.8866993  20.7842753  59.9568903  56.1156993  33.2782753  68.0688903
  55.4176993  32.7702753  68.1948903  56.3756993  33.0732753  67.2608903
  56.0506993  33.1732753  67.9678903  63.2776993  22.0762753  58.5988903
  62.7696993  21.4142753  58.3448903  63.3296993  22.5802753  57.8888903
  63.2106993  22.0532753  58.4568903  63.8266993  34.7712753  68.9788903
  64.5946993  34.6912753  68.5728903  63.2436993  34.6502753  68.3408903
  63.8536993  34.7412753  68.8248903  63.2776993  19.0172753  58.4898903
  62.8226993  18.6152753  57.8638903  64.0506993  19.1722753  58.1148903
  63.3246993  18.9812753  58.3418903  61.8756993  21.3842753  63.0118903
  61.9496993  21.9522753  62.3538903  61.9966993  21.8762753  63.7218903
  61.9036993  21.5412753  63.0198903  57.4766993  32.1292753  70.6358903
  58.3176993  32.1922753  70.4138903  57.4396993  32.5262753  71.4118903
  57.5956993  32.1972753  70.7178903  56.4836993  17.2072753  61.3598903
  57.0196993  17.8952753  61.3498903  56.4866993  16.9332753  60.5318903
  56.5626993  17.2682753  61.2358903  59.4396993  27.6402753  65.3848903
  59.6116993  27.4302753  66.2138903  58.7846993  27.1062753  65.1688903
  59.3686993  27.5302753  65.4758903  65.6676993  21.5542753  68.8998903
  65.5726993  21.8732753  69.7058903  65.0746993  20.9152753  68.8618903
  65.5656993  21.5062753  69.0138903  60.1896993  27.5782753  67.9748903
  60.2426993  28.4252753  68.1768903  59.9046993  27.2082753  68.7118903
  60.1556993  27.6482753  68.1128903  66.3666993  28.2732753  67.1048903
  65.8526993  27.8612753  67.6758903  66.2406993  29.1172753  67.2858903
  66.2726993  28.3372753  67.2158903  53.0106993  31.9492753  74.1858903
  53.7666993  32.2982753  74.4438903  53.1876993  31.0962753  74.1288903
  53.1486993  31.8742753  74.2158903  56.9316993  21.0172753  63.0138903
  57.2036993  20.5872753  62.3058903  56.7556993  20.3812753  63.5848903
  56.9456993  20.8602753  62.9938903  56.7556993  28.4442753  62.5628903
  57.6066993  28.3642753  62.3898903  56.3986993  27.7622753  62.1508903
  56.8286993  28.3312753  62.4758903  55.5226993  35.1692753  63.7998903
  54.8496993  34.6712753  63.5548903  55.9256993  35.3542753  63.0488903
  55.4826993  35.1232753  63.6528903  55.0726993  22.1192753  66.0958903
  55.9156993  22.3392753  66.0528903  54.6836993  22.6922753  65.5648903
  55.1396993  22.2362753  66.0108903  59.1236993  28.4512753  60.7978903
  59.8366993  28.9462753  60.8878903  59.3456993  27.8842753  60.1718903
  59.2616993  28.4402753  60.7188903  53.2796993  30.0942753  64.1178903
  52.6126993  30.5822753  64.3938903  53.9596993  30.6392753  64.1468903
  53.2816993  30.2462753  64.1628903  60.9266993  23.8042753  74.2138903
  60.4426993  24.3812753  74.6558903  60.8986993  24.0992753  73.3928903
  60.8506993  23.9332753  74.1578903  53.3456993  26.7782753  59.2208903
  53.1606993  25.9392753  59.3728903  54.0046993  26.7422753  58.6508903
  53.4156993  26.6492753  59.1588903  63.6466993  32.1542753  63.1248903
  63.1236993  32.7882753  62.8318903  63.9566993  31.7902753  62.3958903
  63.6146993  32.1942753  62.9738903  53.5176993  30.9422753  58.7958903
  54.0696993  31.5112753  59.1598903  53.2856993  30.4272753  59.4608903
  53.5646993  30.9502753  58.9478903  57.7216993  29.9422753  65.8848903
  58.1886993  30.2312753  66.5628903  58.2936993  29.4642753  65.4308903
  57.8756993  29.9142753  65.9178903  53.3476993  29.3912753  56.4238903
  54.1036993  28.9592753  56.4818903  53.3626993  29.9232753  57.1148903
  53.4616993  29.4062753  56.5348903  54.2876993  27.6122753  64.4288903
  54.7186993  27.4832753  63.6818903  54.0826993  28.4602753  64.4028903
  54.3206993  27.7182753  64.3148903  60.6336993  21.1762753  58.0788903
  60.6316993  21.0592753  57.2138903  60.4526993  22.0242753  58.1708903
  60.6066993  21.2842753  57.9648903  58.3716993  31.1282753  62.7108903
  58.4976993  31.9712753  62.8978903  59.0396993  30.7292753  63.1068903
  58.4896993  31.1942753  62.7968903  56.5016993  24.6112753  72.5728903
  55.9656993  24.1052753  73.0408903  56.5216993  24.2212753  71.7928903
  56.4246993  24.4782753  72.5268903  56.9866993  24.0082753  57.7128903
  56.8586993  23.5602753  58.4508903  56.4046993  23.6662753  57.1608903
  56.8816993  23.8912753  57.7408903  57.1536993  25.8382753  64.3118903
  56.3726993  25.7792753  63.9288903  57.2256993  25.0862753  64.7488903
  57.0486993  25.7192753  64.3198903  57.5836993  25.5752753  67.7798903
  57.6086993  24.9002753  67.2288903  56.9376993  26.0712753  67.4678903
  57.4926993  25.5482753  67.6528903  61.6836993  34.3522753  67.1718903
  61.4066993  33.7112753  66.6488903  61.4756993  35.0782753  66.7338903
  61.6126993  34.3652753  67.0298903  64.1236993  19.1942753  69.6048903
  64.2726993  18.3692753  69.3618903  64.5026993  19.2492753  70.3888903
  64.2016993  19.0802753  69.6848903  65.6716993  21.2572753  59.6868903
  66.1616993  21.9742753  59.6098903  64.8816993  21.5182753  59.4238903
  65.6276993  21.4012753  59.6368903  55.3826993  26.9302753  73.3388903
  55.3456993  27.4312753  72.6248903  55.7136993  26.1782753  73.0438903
  55.4256993  26.8922753  73.1898903  61.2816993  31.9802753  72.7738903
  61.6356993  31.8022753  73.5508903  60.8456993  31.2512753  72.5748903
  61.2696993  31.8462753  72.8598903  62.2536993  22.7272753  65.4118903
  62.7336993  23.4262753  65.6198903  62.6266993  22.0802753  65.8628903
  62.3796993  22.7352753  65.5088903  64.4426993  25.8962753  57.6858903
  64.4346993  26.6182753  57.1958903  63.8036993  26.0312753  58.2628903
  64.3476993  26.0232753  57.6988903  65.4596993  32.8322753  65.5108903
  64.8566993  32.5362753  64.9538903  66.0046993  33.2842753  65.0018903
  65.4506993  32.8552753  65.3528903  65.4726993  29.6832753  64.9108903
  64.6756993  29.9072753  65.1848903  65.7306993  29.0892753  65.4958903
  65.3926993  29.6282753  65.0378903  59.3646993  34.4952753  59.3588903
  59.2176993  33.7192753  59.7298903  60.0536993  34.3482753  58.8438903
  59.4446993  34.3582753  59.3378903  59.0356993  18.2382753  57.3468903
  59.1326993  18.1312753  58.2078903  58.3276993  18.7442753  57.2818903
  58.9456993  18.2972753  57.4648903  61.6566993  34.0112753  57.7608903
  62.2786993  34.1742753  58.3508903  61.6926993  34.7022753  57.2288903
  61.7536993  34.1372753  57.7698903  64.9236993  33.0302753  74.0338903
  65.0876993  33.3132753  74.8428903  65.1866993  33.6912753  73.5288903
  64.9866993  33.1702753  74.0788903  56.1576993  26.5452753  58.5898903
  56.4816993  25.7662753  58.3678903  56.8036993  26.9132753  59.0448903
  56.3006993  26.4842753  58.6238903  64.4636993  27.4872753  69.3568903
  64.3086993  28.0972753  69.9608903  64.9976993  26.9292753  69.7628903
  64.5196993  27.4952753  69.5058903  53.1546993  18.2062753  59.5578903
  53.2836993  17.4982753  59.0658903  52.7876993  17.8882753  60.2828903
  53.1196993  18.0542753  59.5928903  62.8476993  25.8872753  60.0148903
  62.9066993  26.5372753  60.5938903  62.6586993  25.1912753  60.5058903
  62.8286993  25.8802753  60.1728903  57.3436993  20.4042753  56.5268903
  56.8326993  20.4572753  55.8208903  58.1276993  20.6442753  56.2308903
  57.3836993  20.4472753  56.3788903  62.0706993  27.9342753  64.4458903
  61.2236993  27.7402753  64.5268903  62.3946993  27.7692753  65.2388903
  61.9926993  27.8812753  64.5748903  58.8226993  34.6642753  55.3318903
  59.2616993  33.9672753  55.6198903  59.0296993  35.2882753  55.9048903
  58.9186993  34.6532753  55.4588903  55.9186993  27.6272753  66.7618903
  56.6406993  28.1152753  66.7248903  55.6486993  27.5972753  65.9328903
  55.9856993  27.6952753  66.6338903  59.1486993  22.7982753  63.4968903
  59.9946993  22.6082753  63.5948903  58.7786993  22.0212753  63.3588903
  59.2186993  22.6552753  63.4908903  53.9696993  24.1362753  60.1518903
  54.4586993  23.8442753  60.8128903  54.0986993  23.5432753  59.5248903
  54.0606993  24.0052753  60.1568903  58.4946993  25.5702753  55.6378903
  57.8846993  25.1652753  56.1118903  58.1086993  25.6882753  54.8648903
  58.3476993  25.5272753  55.5938903  55.3136993  28.6792753  71.0398903
  54.8926993  28.1612753  70.4788903  54.9616993  29.4652753  70.8968903
  55.1996993  28.7192753  70.9358903  59.9496993  24.0312753  58.3478903
  60.2216993  24.8572753  58.4148903  59.0866993  24.1062753  58.2518903
  59.8626993  24.1642753  58.3428903  53.4296993  20.0012753  64.8838903
  53.4736993  20.3452753  64.0828903  54.1846993  20.2382753  65.2508903
  53.5476993  20.0872753  64.8198903  65.3706993  29.3402753  56.3538903
  66.0546993  28.8262753  56.1848903  64.9536993  29.3862753  55.5888903
  65.4096993  29.2712753  56.2158903  60.0526993  30.4902753  67.6578903
  59.7546993  31.0822753  68.2248903  60.1076993  30.9322753  66.9088903
  60.0166993  30.6432753  67.6308903  58.0316993  29.4402753  71.0558903
  57.2256993  29.1502753  71.2228903  57.9426993  30.3082753  71.0618903
  57.8996993  29.5252753  71.0808903  62.5686993  26.9132753  67.1488903
  63.0446993  27.2872753  67.7768903  61.7456993  27.0472753  67.4078903
  62.5176993  26.9882753  67.2798903  59.2786993  22.5162753  69.8898903
  59.4396993  21.7722753  70.3168903  59.2336993  22.2672753  69.0548903
  59.2956993  22.3692753  69.8298903  61.8326993  34.3062753  62.3768903
  62.3786993  34.9852753  62.4308903  61.4826993  34.3882753  61.5818903
  61.8616993  34.4192753  62.2668903  61.0306993  18.3242753  69.7698903
  61.7356993  18.6442753  69.3678903  61.2716993  17.5172753  69.9968903
  61.1696993  18.2522753  69.7438903  60.0156993  32.5342753  65.7658903
  59.3916993  33.1162753  65.5838903  60.2636993  32.2482753  64.9798903
  59.9596993  32.5782753  65.6228903  64.3246993  29.1682753  72.7548903
  65.0816993  29.4542753  72.4288903  63.7776993  29.2202753  72.0768903
  64.3556993  29.2182753  72.6058903  61.6096993  27.3102753  55.6808903
  60.8046993  27.1332753  55.3958903  61.5766993  28.1612753  55.8728903
  61.4856993  27.4092753  55.6678903  57.5396993  23.3772753  65.8308903
  57.9796993  23.2742753  65.0848903  58.0846993  23.0642753  66.4358903
  57.6846993  23.3162753  65.8098903  65.5556993  22.4792753  71.4228903
  64.9076993  22.9492753  71.7708903  66.1206993  22.3902753  72.0818903
  65.5436993  22.5352753  71.5718903  65.2436993  24.0162753  67.7208903
  65.5456993  24.4362753  68.4238903  65.2796993  23.1762753  67.9528903
  65.2936993  23.9542753  67.8588903  62.6686993  34.1832753  71.6458903
  63.1466993  33.5832753  71.2298903  62.3176993  33.7402753  72.3108903
  62.6876993  34.0292753  71.6828903  61.0866993  18.3622753  65.8778903
  60.2606993  18.2132753  66.1148903  61.0466993  18.3972753  65.0068903
  60.9586993  18.3452753  65.7838903  62.7276993  29.4022753  70.6658903
  61.9326993  29.3382753  71.0168903  62.7986993  30.2492753  70.4708903
  62.6206993  29.5172753  70.6888903  53.6516993  18.7602753  71.9128903
  53.5116993  19.5552753  71.5818903  52.8656993  18.5172753  72.2018903
  53.5146993  18.8422753  71.9068903  58.5576993  35.6092753  65.9828903
  58.5686993  35.6682753  66.8528903  58.1326993  34.8622753  65.8328903
  58.4966993  35.5072753  66.0888903  56.7156993  21.5042753  59.1378903
  56.8416993  21.1752753  58.3398903  55.9036993  21.2552753  59.3368903
  56.6146993  21.4192753  59.0498903  65.4726993  28.6572753  62.1818903
  65.5486993  28.9982753  62.9808903  65.6416993  27.8102753  62.3028903
  65.5086993  28.5822753  62.3178903  62.9946993  27.9312753  61.7468903
  62.6966993  27.6162753  62.5038903  63.6896993  28.4042753  61.9818903
  63.0536993  27.9542753  61.8938903  63.2166993  32.0492753  69.7738903
  63.9036993  31.9352753  70.2988903  63.3506993  32.8402753  69.4298903
  63.3376993  32.1492753  69.8008903  55.3216993  35.1072753  71.4248903
  54.6676993  34.5382753  71.5228903  54.9466993  35.8802753  71.5758903
  55.1696993  35.1372753  71.4618903  63.8396993  26.5132753  73.3478903
  64.1626993  27.1992753  72.9158903  63.1356993  26.8362753  73.7498903
  63.7826993  26.6622753  73.3428903  63.6246993  29.9772753  67.2068903
  62.9306993  30.3792753  67.5498903  64.3016993  30.4102753  67.5458903
  63.6216993  30.1002753  67.3078903  56.6926993  23.5152753  69.5538903
  57.0676993  24.1342753  69.0668903  57.3666993  23.0412753  69.8388903
  56.8476993  23.5372753  69.5238903  54.4676993  21.9632753  68.8288903
  54.5446993  21.7942753  67.9758903  55.2136993  22.3692753  69.0258903
  54.5886993  21.9982753  68.7318903  57.0216993  19.3732753  71.2398903
  56.9406993  18.5292753  71.4458903  56.7076993  19.4172753  70.4268903
  56.9636993  19.2552753  71.1498903  63.9466993  31.5682753  60.3758903
  63.7416993  32.4012753  60.2168903  63.1716993  31.1862753  60.4978903
  63.8016993  31.6352753  60.3708903  53.8646993  27.1892753  69.0528903
  54.1846993  27.4082753  68.2718903  53.7646993  26.3242753  68.9978903
  53.8966993  27.0942753  68.9298903  55.3206993  23.1252753  55.6708903
  54.6486993  23.1392753  56.2268903  55.4156993  22.2772753  55.4868903
  55.2356993  23.0022753  55.7258903  65.0076993  19.5492753  72.4068903
  65.0996993  20.2612753  72.9008903  64.3706993  19.1042753  72.8038903
  64.9266993  19.5882753  72.5388903  64.0016993  19.7392753  63.2608903
  63.3016993  20.2572753  63.2048903  64.0396993  19.3592753  62.4768903
  63.9036993  19.7602753  63.1368903  59.3086993  31.8302753  56.7848903
  59.7496993  31.9102753  57.5328903  58.5036993  31.6142753  57.0428903
  59.2546993  31.8102753  56.9338903  58.6276993  26.4812753  70.4378903
  58.2316993  27.2552753  70.5128903  58.2216993  26.1082753  69.7618903
  58.5096993  26.5402753  70.3488903  56.6376993  30.9002753  57.3858903
  56.3936993  30.5932753  58.1658903  56.6046993  30.1972753  56.8698903
  56.5966993  30.7512753  57.4248903  59.4566993  29.1452753  56.1288903
  58.6386993  28.8772753  56.2688903  59.4286993  29.9972753  56.3138903
  59.3316993  29.2322753  56.1768903  59.0566993  19.4582753  67.8878903
  58.1926993  19.5422753  67.9678903  59.2766993  18.9442753  68.5568903
  58.9616993  19.3952753  67.9988903  63.1596993  20.2062753  66.2618903
  62.4226993  19.7522753  66.3748903  63.7306993  19.8042753  66.7848903
  63.1346993  20.0792753  66.3558903  65.8916993  31.0542753  68.0498903
  66.0976993  31.3552753  68.8418903  65.8306993  31.7762753  67.5648903
  65.9126993  31.2052753  68.0948903  65.4256993  35.2682753  72.2958903
  64.6726993  35.2502753  71.8548903  65.5936993  36.1202753  72.3798903
  65.3396993  35.3912753  72.2428903  60.6626993  24.5352753  71.4658903
  60.3406993  23.9592753  70.8958903  60.3036993  25.2902753  71.2198903
  60.5626993  24.5612753  71.3458903  61.4586993  17.7872753  56.0928903
  61.5366993  18.0342753  55.2598903  60.7156993  18.1642753  56.3508903
  61.3606993  17.8792753  56.0078903  59.0976993  34.8912753  71.7138903
  59.1386993  35.0172753  72.5768903  59.7486993  34.3312753  71.5578903
  59.1996993  34.8272753  71.8188903  56.2766993  19.5412753  68.5358903
  55.9336993  18.7742753  68.3018903  55.5816993  20.0652753  68.5998903
  56.1236993  19.5052753  68.5108903  65.3226993  18.3972753  65.5128903
  65.9926993  18.9412753  65.6398903  64.8196993  18.8212753  64.9398903
  65.3476993  18.5402753  65.4468903  56.6906993  33.2742753  73.0738903
  57.2856993  33.7052753  73.5458903  56.3266993  33.8982753  72.5848903
  56.7246993  33.4302753  73.0708903  64.6816993  24.2052753  63.0058903
  65.2326993  23.5982753  63.3058903  64.2566993  24.4682753  63.7208903
  64.7006993  24.1542753  63.1548903  54.9296993  22.8552753  62.4918903
  54.5616993  23.1572753  63.2228903  55.4636993  22.2262753  62.7758903
  54.9536993  22.8072753  62.6418903  56.4036993  34.5302753  58.7778903
  56.2586993  34.6862753  57.9318903  57.2696993  34.6092753  58.8558903
  56.5106993  34.5652753  58.6648903  60.5706993  26.9272753  58.5058903
  60.6706993  27.0662753  57.6508903  61.3886993  26.8672753  58.8018903
  60.7056993  26.9382753  58.4228903  65.8056993  31.2562753  58.3078903
  65.5546993  31.1282753  59.1338903  65.4886993  30.5612753  57.8868903
  65.7216993  31.1352753  58.3678903  59.7096993  19.9022753  71.6218903
  59.9436993  19.3262753  71.0088903  58.8676993  19.7212753  71.7628903
  59.6196993  19.7902753  71.5518903  57.0906993  33.3452753  65.2548903
  57.0116993  32.5352753  64.9388903  56.6466993  33.8322753  64.6828903
  57.0136993  33.2972753  65.1238903  62.6916993  29.4642753  57.7378903
  63.4086993  29.1172753  57.3818903  62.6576993  30.2642753  57.3898903
  62.7926993  29.5312753  57.6338903  54.6626993  35.5892753  68.8358903
  55.1556993  35.5332753  69.5538903  54.8506993  34.8562753  68.4008903
  54.7636993  35.4722753  68.8778903  64.1006993  18.1052753  41.9766493
  63.8556993  18.5932753  41.2966493  64.9636993  18.0322753  41.8766493
  64.1916993  18.1662753  41.8616493  63.9096993  25.0212753  46.6476493
  63.3856993  25.6172753  47.0106493  64.3066993  24.6532753  47.3316493
  63.8906993  25.0552753  46.8026493  53.7786993  29.1612753  42.1036493
  53.3376993  29.2792753  42.8466493  53.4956993  28.3862753  41.8186493
  53.6716993  29.0642753  42.1716493  53.5216993  22.9532753  38.6106493
  52.7436993  23.1152753  38.2506493  53.5606993  22.0822753  38.6326493
  53.4126993  22.8482753  38.5606493  56.6606993  28.2162753  37.2826493
  56.2686993  27.8452753  36.5966493  56.5806993  27.6182753  37.9116493
  56.5906993  28.0732753  37.2736493  56.2876993  29.8572753  41.1826493
  56.8956993  29.6872753  41.7856493  55.5366993  29.7172753  41.6036493
  56.2666993  29.8112753  41.3336493  60.5696993  19.1922753  41.1316493
  60.4996993  19.8692753  40.5856493  61.3106993  18.8042753  40.8826493
  60.6686993  19.2352753  41.0136493  55.1786993  32.9482753  37.2596493
  55.6456993  33.0322753  36.5276493  55.6336993  32.3702753  37.7286493
  55.3146993  32.8752753  37.2206493  53.7186993  31.8962753  48.3586493
  53.8476993  31.6162753  49.1746493  53.1086993  31.3552753  48.0496493
  53.6476993  31.7752753  48.4336493  60.2926993  29.4212753  53.4256493
  60.0566993  29.4182753  54.2656493  59.5446993  29.2732753  53.0016493
  60.1466993  29.3982753  53.4866493  55.1646993  26.4172753  42.5606493
  54.7026993  26.0252753  41.9336493  55.8646993  25.9042753  42.6526493
  55.1996993  26.2842753  42.4816493  59.6726993  22.0272753  47.9076493
  60.3506993  22.0452753  47.3586493  59.6276993  21.1912753  48.1526493
  59.7656993  21.9062753  47.8626493  60.2746993  32.6132753  50.6886493
  60.4126993  33.3732753  50.2816493  61.0656993  32.2482753  50.7156493
  60.4116993  32.6722753  50.6326493  57.1656993  24.5172753  42.5836493
  57.9826993  24.3302753  42.8266493  56.6886993  23.9032753  42.9796493
  57.2156993  24.3992753  42.6786493  61.3696993  30.4982753  45.1936493
  61.7176993  29.6992753  45.2236493  62.0346993  31.0022753  44.9386493
  61.5196993  30.4542753  45.1606493  61.4266993  29.9472753  41.4046493
  61.7576993  29.3032753  41.8906493  61.6666993  29.7362753  40.5936493
  61.5106993  29.8212753  41.3566493  63.3946993  24.0782753  52.7436493
  62.5466993  23.9792753  52.5656493  63.4236993  24.8232753  53.1976493
  63.2736993  24.1742753  52.7846493  57.7626993  19.6112753  41.8496493
  57.4666993  20.1122753  41.1996493  58.6296993  19.6892753  41.7926493
  57.8466993  19.6972753  41.7456493  60.7416993  18.7532753  44.0726493
  60.8146993  19.6132753  44.2016493  60.7036993  18.6782753  43.2046493
  60.7466993  18.8692753  43.9636493  65.4146993  21.6792753  36.3716493
  64.9646993  22.3602753  36.6786493  65.5286993  21.1752753  37.0746493
  65.3656993  21.7052753  36.5206493  53.6206993  24.1782753  45.5736493
  53.3646993  25.0092753  45.4986493  52.9566993  23.7952753  45.9906493
  53.4846993  24.2442753  45.6246493  53.5306993  33.8882753  43.4736493
  52.9386993  34.4462753  43.1606493  53.9566993  33.6192753  42.7616493
  53.5066993  33.9302753  43.3226493  59.3706993  31.7322753  40.9536493
  58.7916993  31.4572753  41.5456493  59.9946993  31.1232753  40.9786493
  59.3776993  31.6022753  41.0446493  65.5136993  34.0202753  38.4756493
  66.2406993  34.4922753  38.5776493  65.7426993  33.2262753  38.7556493
  65.6556993  33.9732753  38.5326493  63.6816993  34.4122753  40.4656493
  63.8956993  34.9392753  41.1276493  64.4486993  34.2382753  40.0866493
  63.8266993  34.4642753  40.5076493  56.6496993  18.9952753  46.0646493
  56.1286993  18.3672753  45.7566493  57.2406993  18.5582753  46.5356493
  56.6606993  18.8372753  46.0886493  59.9556993  21.1282753  55.3626493
  60.0726993  20.6742753  54.6266493  60.2436993  21.9262753  55.1596493
  60.0156993  21.1792753  55.2236493  55.0756993  32.5582753  41.4046493
  55.7316993  31.9832753  41.4196493  55.4646993  33.3072753  41.1836493
  55.2306993  32.5832753  41.3746493  55.6886993  20.7252753  54.3466493
  54.9106993  20.3352753  54.2746493  56.1796993  20.3132753  53.7556493
  55.6456993  20.6062753  54.2486493  55.8936993  31.0452753  44.9046493
  56.3166993  30.6892753  44.2306493  56.2176993  30.6232753  45.5966493
  56.0036993  30.9302753  44.9076493  59.1246993  33.8972753  44.2006493
  59.9686993  34.0012753  44.0056493  58.8276993  34.7152753  44.2686493
  59.2056993  34.0332753  44.1816493  62.3376993  18.3682753  53.5146493
  62.5156993  17.5592753  53.2396493  62.1946993  18.8092753  52.7756493
  62.3426993  18.3142753  53.3646493  62.9316993  23.2942753  42.2876493
  63.2186993  23.0622753  41.4976493  63.6636993  23.3732753  42.7566493
  63.0816993  23.2712753  42.2406493  63.6536993  23.6332753  37.4086493
  63.9346993  24.4212753  37.6576493  62.8776993  23.7982753  37.0456493
  63.5806993  23.7742753  37.3916493  58.1226993  35.1162753  49.9406493
  58.4146993  35.0492753  50.7606493  57.4966993  34.5112753  49.8956493
  58.0736993  35.0172753  50.0556493  53.0366993  21.2732753  51.9326493
  53.0326993  21.8602753  52.5786493  53.6306993  21.5852753  51.3756493
  53.1236993  21.4062753  51.9456493  65.3746993  31.6072753  52.4746493
  65.3406993  31.9892753  53.2586493  66.2286993  31.5652753  52.3036493
  65.4956993  31.6572753  52.5656493  62.5126993  31.8042753  37.2246493
  62.3316993  32.3492753  37.8816493  63.2786993  32.0942753  36.9236493
  62.5986993  31.9282753  37.2776493  53.9736993  20.8682753  40.8476493
  53.8596993  20.0042753  40.8786493  53.4986993  21.1622753  41.5176493
  53.8866993  20.7842753  40.9506493  56.1156993  33.2782753  49.0626493
  55.4176993  32.7702753  49.1886493  56.3756993  33.0732753  48.2546493
  56.0506993  33.1732753  48.9616493  63.2776993  22.0762753  39.5926493
  62.7696993  21.4142753  39.3386493  63.3296993  22.5802753  38.8826493
  63.2106993  22.0532753  39.4506493  63.8266993  34.7712753  49.9726493
  64.5946993  34.6912753  49.5666493  63.2436993  34.6502753  49.3346493
  63.8536993  34.7412753  49.8186493  63.2776993  19.0172753  39.4836493
  62.8226993  18.6152753  38.8576493  64.0506993  19.1722753  39.1086493
  63.3246993  18.9812753  39.3356493  61.8756993  21.3842753  44.0056493
  61.9496993  21.9522753  43.3476493  61.9966993  21.8762753  44.7156493
  61.9036993  21.5412753  44.0136493  57.4766993  32.1292753  51.6296493
  58.3176993  32.1922753  51.4076493  57.4396993  32.5262753  52.4056493
  57.5956993  32.1972753  51.7116493  56.4836993  17.2072753  42.3536493
  57.0196993  17.8952753  42.3436493  56.4866993  16.9332753  41.5256493
  56.5626993  17.2682753  42.2296493  59.4396993  27.6402753  46.3786493
  59.6116993  27.4302753  47.2076493  58.7846993  27.1062753  46.1626493
  59.3686993  27.5302753  46.4696493  65.6676993  21.5542753  49.8936493
  65.5726993  21.8732753  50.6996493  65.0746993  20.9152753  49.8556493
  65.5656993  21.5062753  50.0076493  60.1896993  27.5782753  48.9686493
  60.2426993  28.4252753  49.1706493  59.9046993  27.2082753  49.7056493
  60.1556993  27.6482753  49.1066493  66.3666993  28.2732753  48.0986493
  65.8526993  27.8612753  48.6696493  66.2406993  29.1172753  48.2796493
  66.2726993  28.3372753  48.2096493  53.0106993  31.9492753  55.1796493
  53.7666993  32.2982753  55.4376493  53.1876993  31.0962753  55.1226493
  53.1486993  31.8742753  55.2096493  56.9316993  21.0172753  44.0076493
  57.2036993  20.5872753  43.2996493  56.7556993  20.3812753  44.5786493
  56.9456993  20.8602753  43.9876493  56.7556993  28.4442753  43.5566493
  57.6066993  28.3642753  43.3836493  56.3986993  27.7622753  43.1446493
  56.8286993  28.3312753  43.4696493  55.5226993  35.1692753  44.7936493
  54.8496993  34.6712753  44.5486493  55.9256993  35.3542753  44.0426493
  55.4826993  35.1232753  44.6466493  55.0726993  22.1192753  47.0896493
  55.9156993  22.3392753  47.0466493  54.6836993  22.6922753  46.5586493
  55.1396993  22.2362753  47.0046493  59.1236993  28.4512753  41.7916493
  59.8366993  28.9462753  41.8816493  59.3456993  27.8842753  41.1656493
  59.2616993  28.4402753  41.7126493  53.2796993  30.0942753  45.1116493
  52.6126993  30.5822753  45.3876493  53.9596993  30.6392753  45.1406493
  53.2816993  30.2462753  45.1566493  60.9266993  23.8042753  55.2076493
  60.4426993  24.3812753  55.6496493  60.8986993  24.0992753  54.3866493
  60.8506993  23.9332753  55.1516493  53.3456993  26.7782753  40.2146493
  53.1606993  25.9392753  40.3666493  54.0046993  26.7422753  39.6446493
  53.4156993  26.6492753  40.1526493  63.6466993  32.1542753  44.1186493
  63.1236993  32.7882753  43.8256493  63.9566993  31.7902753  43.3896493
  63.6146993  32.1942753  43.9676493  53.5176993  30.9422753  39.7896493
  54.0696993  31.5112753  40.1536493  53.2856993  30.4272753  40.4546493
  53.5646993  30.9502753  39.9416493  57.7216993  29.9422753  46.8786493
  58.1886993  30.2312753  47.5566493  58.2936993  29.4642753  46.4246493
  57.8756993  29.9142753  46.9116493  53.3476993  29.3912753  37.4176493
  54.1036993  28.9592753  37.4756493  53.3626993  29.9232753  38.1086493
  53.4616993  29.4062753  37.5286493  54.2876993  27.6122753  45.4226493
  54.7186993  27.4832753  44.6756493  54.0826993  28.4602753  45.3966493
  54.3206993  27.7182753  45.3086493  60.6336993  21.1762753  39.0726493
  60.6316993  21.0592753  38.2076493  60.4526993  22.0242753  39.1646493
  60.6066993  21.2842753  38.9586493  58.3716993  31.1282753  43.7046493
  58.4976993  31.9712753  43.8916493  59.0396993  30.7292753  44.1006493
  58.4896993  31.1942753  43.7906493  56.5016993  24.6112753  53.5666493
  55.9656993  24.1052753  54.0346493  56.5216993  24.2212753  52.7866493
  56.4246993  24.4782753  53.5206493  56.9866993  24.0082753  38.7066493
  56.8586993  23.5602753  39.4446493  56.4046993  23.6662753  38.1546493
  56.8816993  23.8912753  38.7346493  57.1536993  25.8382753  45.3056493
  56.3726993  25.7792753  44.9226493  57.2256993  25.0862753  45.7426493
  57.0486993  25.7192753  45.3136493  57.5836993  25.5752753  48.7736493
  57.6086993  24.9002753  48.2226493  56.9376993  26.0712753  48.4616493
  57.4926993  25.5482753  48.6466493  61.6836993  34.3522753  48.1656493
  61.4066993  33.7112753  47.6426493  61.4756993  35.0782753  47.7276493
  61.6126993  34.3652753  48.0236493  64.1236993  19.1942753  50.5986493
  64.2726993  18.3692753  50.3556493  64.5026993  19.2492753  51.3826493
  64.2016993  19.0802753  50.6786493  65.6716993  21.2572753  40.6806493
  66.1616993  21.9742753  40.6036493  64.8816993  21.5182753  40.4176493
  65.6276993  21.4012753  40.6306493  55.3826993  26.9302753  54.3326493
  55.3456993  27.4312753  53.6186493  55.7136993  26.1782753  54.0376493
  55.4256993  26.8922753  54.1836493  61.2816993  31.9802753  53.7676493
  61.6356993  31.8022753  54.5446493  60.8456993  31.2512753  53.5686493
  61.2696993  31.8462753  53.8536493  62.2536993  22.7272753  46.4056493
  62.7336993  23.4262753  46.6136493  62.6266993  22.0802753  46.8566493
  62.3796993  22.7352753  46.5026493  64.4426993  25.8962753  38.6796493
  64.4346993  26.6182753  38.1896493  63.8036993  26.0312753  39.2566493
  64.3476993  26.0232753  38.6926493  65.4596993  32.8322753  46.5046493
  64.8566993  32.5362753  45.9476493  66.0046993  33.2842753  45.9956493
  65.4506993  32.8552753  46.3466493  65.4726993  29.6832753  45.9046493
  64.6756993  29.9072753  46.1786493  65.7306993  29.0892753  46.4896493
  65.3926993  29.6282753  46.0316493  59.3646993  34.4952753  40.3526493
  59.2176993  33.7192753  40.7236493  60.0536993  34.3482753  39.8376493
  59.4446993  34.3582753  40.3316493  59.0356993  18.2382753  38.3406493
  59.1326993  18.1312753  39.2016493  58.3276993  18.7442753  38.2756493
  58.9456993  18.2972753  38.4586493  61.6566993  34.0112753  38.7546493
  62.2786993  34.1742753  39.3446493  61.6926993  34.7022753  38.2226493
  61.7536993  34.1372753  38.7636493  64.9236993  33.0302753  55.0276493
  65.0876993  33.3132753  55.8366493  65.1866993  33.6912753  54.5226493
  64.9866993  33.1702753  55.0726493  56.1576993  26.5452753  39.5836493
  56.4816993  25.7662753  39.3616493  56.8036993  26.9132753  40.0386493
  56.3006993  26.4842753  39.6176493  64.4636993  27.4872753  50.3506493
  64.3086993  28.0972753  50.9546493  64.9976993  26.9292753  50.7566493
  64.5196993  27.4952753  50.4996493  53.1546993  18.2062753  40.5516493
  53.2836993  17.4982753  40.0596493  52.7876993  17.8882753  41.2766493
  53.1196993  18.0542753  40.5866493  62.8476993  25.8872753  41.0086493
  62.9066993  26.5372753  41.5876493  62.6586993  25.1912753  41.4996493
  62.8286993  25.8802753  41.1666493  57.3436993  20.4042753  37.5206493
  56.8326993  20.4572753  36.8146493  58.1276993  20.6442753  37.2246493
  57.3836993  20.4472753  37.3726493  62.0706993  27.9342753  45.4396493
  61.2236993  27.7402753  45.5206493  62.3946993  27.7692753  46.2326493
  61.9926993  27.8812753  45.5686493  58.8226993  34.6642753  36.3256493
  59.2616993  33.9672753  36.6136493  59.0296993  35.2882753  36.8986493
  58.9186993  34.6532753  36.4526493  55.9186993  27.6272753  47.7556493
  56.6406993  28.1152753  47.7186493  55.6486993  27.5972753  46.9266493
  55.9856993  27.6952753  47.6276493  59.1486993  22.7982753  44.4906493
  59.9946993  22.6082753  44.5886493  58.7786993  22.0212753  44.3526493
  59.2186993  22.6552753  44.4846493  53.9696993  24.1362753  41.1456493
  54.4586993  23.8442753  41.8066493  54.0986993  23.5432753  40.5186493
  54.0606993  24.0052753  41.1506493  58.4946993  25.5702753  36.6316493
  57.8846993  25.1652753  37.1056493  58.1086993  25.6882753  35.8586493
  58.3476993  25.5272753  36.5876493  55.3136993  28.6792753  52.0336493
  54.8926993  28.1612753  51.4726493  54.9616993  29.4652753  51.8906493
  55.1996993  28.7192753  51.9296493  59.9496993  24.0312753  39.3416493
  60.2216993  24.8572753  39.4086493  59.0866993  24.1062753  39.2456493
  59.8626993  24.1642753  39.3366493  53.4296993  20.0012753  45.8776493
  53.4736993  20.3452753  45.0766493  54.1846993  20.2382753  46.2446493
  53.5476993  20.0872753  45.8136493  65.3706993  29.3402753  37.3476493
  66.0546993  28.8262753  37.1786493  64.9536993  29.3862753  36.5826493
  65.4096993  29.2712753  37.2096493  60.0526993  30.4902753  48.6516493
  59.7546993  31.0822753  49.2186493  60.1076993  30.9322753  47.9026493
  60.0166993  30.6432753  48.6246493  58.0316993  29.4402753  52.0496493
  57.2256993  29.1502753  52.2166493  57.9426993  30.3082753  52.0556493
  57.8996993  29.5252753  52.0746493  62.5686993  26.9132753  48.1426493
  63.0446993  27.2872753  48.7706493  61.7456993  27.0472753  48.4016493
  62.5176993  26.9882753  48.2736493  59.2786993  22.5162753  50.8836493
  59.4396993  21.7722753  51.3106493  59.2336993  22.2672753  50.0486493
  59.2956993  22.3692753  50.8236493  61.8326993  34.3062753  43.3706493
  62.3786993  34.9852753  43.4246493  61.4826993  34.3882753  42.5756493
  61.8616993  34.4192753  43.2606493  61.0306993  18.3242753  50.7636493
  61.7356993  18.6442753  50.3616493  61.2716993  17.5172753  50.9906493
  61.1696993  18.2522753  50.7376493  60.0156993  32.5342753  46.7596493
  59.3916993  33.1162753  46.5776493  60.2636993  32.2482753  45.9736493
  59.9596993  32.5782753  46.6166493  64.3246993  29.1682753  53.7486493
  65.0816993  29.4542753  53.4226493  63.7776993  29.2202753  53.0706493
  64.3556993  29.2182753  53.5996493  61.6096993  27.3102753  36.6746493
  60.8046993  27.1332753  36.3896493  61.5766993  28.1612753  36.8666493
  61.4856993  27.4092753  36.6616493  57.5396993  23.3772753  46.8246493
  57.9796993  23.2742753  46.0786493  58.0846993  23.0642753  47.4296493
  57.6846993  23.3162753  46.8036493  65.5556993  22.4792753  52.4166493
  64.9076993  22.9492753  52.7646493  66.1206993  22.3902753  53.0756493
  65.5436993  22.5352753  52.5656493  65.2436993  24.0162753  48.7146493
  65.5456993  24.4362753  49.4176493  65.2796993  23.1762753  48.9466493
  65.2936993  23.9542753  48.8526493  62.6686993  34.1832753  52.6396493
  63.1466993  33.5832753  52.2236493  62.3176993  33.7402753  53.3046493
  62.6876993  34.0292753  52.6766493  61.0866993  18.3622753  46.8716493
  60.2606993  18.2132753  47.1086493  61.0466993  18.3972753  46.0006493
  60.9586993  18.3452753  46.7776493  62.7276993  29.4022753  51.6596493
  61.9326993  29.3382753  52.0106493  62.7986993  30.2492753  51.4646493
  62.6206993  29.5172753  51.6826493  53.6516993  18.7602753  52.9066493
  53.5116993  19.5552753  52.5756493  52.8656993  18.5172753  53.1956493
  53.5146993  18.8422753  52.9006493  58.5576993  35.6092753  46.9766493
  58.5686993  35.6682753  47.8466493  58.1326993  34.8622753  46.8266493
  58.4966993  35.5072753  47.0826493  56.7156993  21.5042753  40.1316493
  56.8416993  21.1752753  39.3336493  55.9036993  21.2552753  40.3306493
  56.6146993  21.4192753  40.0436493  65.4726993  28.6572753  43.1756493
  65.5486993  28.9982753  43.9746493  65.6416993  27.8102753  43.2966493
  65.5086993  28.5822753  43.3116493  62.9946993  27.9312753  42.7406493
  62.6966993  27.6162753  43.4976493  63.6896993  28.4042753  42.9756493
  63.0536993  27.9542753  42.8876493  63.2166993  32.0492753  50.7676493
  63.9036993  31.9352753  51.2926493  63.3506993  32.8402753  50.4236493
  63.3376993  32.1492753  50.7946493  55.3216993  35.1072753  52.4186493
  54.6676993  34.5382753  52.5166493  54.9466993  35.8802753  52.5696493
  55.1696993  35.1372753  52.4556493  63.8396993  26.5132753  54.3416493
  64.1626993  27.1992753  53.9096493  63.1356993  26.8362753  54.7436493
  63.7826993  26.6622753  54.3366493  63.6246993  29.9772753  48.2006493
  62.9306993  30.3792753  48.5436493  64.3016993  30.4102753  48.5396493
  63.6216993  30.1002753  48.3016493  56.6926993  23.5152753  50.5476493
  57.0676993  24.1342753  50.0606493  57.3666993  23.0412753  50.8326493
  56.8476993  23.5372753  50.5176493  54.4676993  21.9632753  49.8226493
  54.5446993  21.7942753  48.9696493  55.2136993  22.3692753  50.0196493
  54.5886993  21.9982753  49.7256493  57.0216993  19.3732753  52.2336493
  56.9406993  18.5292753  52.4396493  56.7076993  19.4172753  51.4206493
  56.9636993  19.2552753  52.1436493  63.9466993  31.5682753  41.3696493
  63.7416993  32.4012753  41.2106493  63.1716993  31.1862753  41.4916493
  63.8016993  31.6352753  41.3646493  53.8646993  27.1892753  50.0466493
  54.1846993  27.4082753  49.2656493  53.7646993  26.3242753  49.9916493
  53.8966993  27.0942753  49.9236493  55.3206993  23.1252753  36.6646493
  54.6486993  23.1392753  37.2206493  55.4156993  22.2772753  36.4806493
  55.2356993  23.0022753  36.7196493  65.0076993  19.5492753  53.4006493
  65.0996993  20.2612753  53.8946493  64.3706993  19.1042753  53.7976493
  64.9266993  19.5882753  53.5326493  64.0016993  19.7392753  44.2546493
  63.3016993  20.2572753  44.1986493  64.0396993  19.3592753  43.4706493
  63.9036993  19.7602753  44.1306493  59.3086993  31.8302753  37.7786493
  59.7496993  31.9102753  38.5266493  58.5036993  31.6142753  38.0366493
  59.2546993  31.8102753  37.9276493  58.6276993  26.4812753  51.4316493
  58.2316993  27.2552753  51.5066493  58.2216993  26.1082753  50.7556493
  58.5096993  26.5402753  51.3426493  56.6376993  30.9002753  38.3796493
  56.3936993  30.5932753  39.1596493  56.6046993  30.1972753  37.8636493
  56.5966993  30.7512753  38.4186493  59.4566993  29.1452753  37.1226493
  58.6386993  28.8772753  37.2626493  59.4286993  29.9972753  37.3076493
  59.3316993  29.2322753  37.1706493  59.0566993  19.4582753  48.8816493
  58.1926993  19.5422753  48.9616493  59.2766993  18.9442753  49.5506493
  58.9616993  19.3952753  48.9926493  63.1596993  20.2062753  47.2556493
  62.4226993  19.7522753  47.3686493  63.7306993  19.8042753  47.7786493
  63.1346993  20.0792753  47.3496493  65.8916993  31.0542753  49.0436493
  66.0976993  31.3552753  49.8356493  65.8306993  31.7762753  48.5586493
  65.9126993  31.2052753  49.0886493  65.4256993  35.2682753  53.2896493
  64.6726993  35.2502753  52.8486493  65.5936993  36.1202753  53.3736493
  65.3396993  35.3912753  53.2366493  60.6626993  24.5352753  52.4596493
  60.3406993  23.9592753  51.8896493  60.3036993  25.2902753  52.2136493
  60.5626993  24.5612753  52.3396493  61.4586993  17.7872753  37.0866493
  61.5366993  18.0342753  36.2536493  60.7156993  18.1642753  37.3446493
  61.3606993  17.8792753  37.0016493  59.0976993  34.8912753  52.7076493
  59.1386993  35.0172753  53.5706493  59.7486993  34.3312753  52.5516493
  59.1996993  34.8272753  52.8126493  56.2766993  19.5412753  49.5296493
  55.9336993  18.7742753  49.2956493  55.5816993  20.0652753  49.5936493
  56.1236993  19.5052753  49.5046493  65.3226993  18.3972753  46.5066493
  65.9926993  18.9412753  46.6336493  64.8196993  18.8212753  45.9336493
  65.3476993  18.5402753  46.4406493  56.6906993  33.2742753  54.0676493
  57.2856993  33.7052753  54.5396493  56.3266993  33.8982753  53.5786493
  56.7246993  33.4302753  54.0646493  64.6816993  24.2052753  43.9996493
  65.2326993  23.5982753  44.2996493  64.2566993  24.4682753  44.7146493
  64.7006993  24.1542753  44.1486493  54.9296993  22.8552753  43.4856493
  54.5616993  23.1572753  44.2166493  55.4636993  22.2262753  43.7696493
  54.9536993  22.8072753  43.6356493  54.6176993  31.2632753  50.9966493
  54.0436993  31.6792753  51.5056493  55.3506993  31.7282753  51.0916493
  54.6416993  31.3932753  51.0856493  56.4036993  34.5302753  39.7716493
  56.2586993  34.6862753  38.9256493  57.2696993  34.6092753  39.8496493
  56.5106993  34.5652753  39.6586493  60.5706993  26.9272753  39.4996493
  60.6706993  27.0662753  38.6446493  61.3886993  26.8672753  39.7956493
  60.7056993  26.9382753  39.4166493  65.8056993  31.2562753  39.3016493
  65.5546993  31.1282753  40.1276493  65.4886993  30.5612753  38.8806493
  65.7216993  31.1352753  39.3616493  59.7096993  19.9022753  52.6156493
  59.9436993  19.3262753  52.0026493  58.8676993  19.7212753  52.7566493
  59.6196993  19.7902753  52.5456493  57.0906993  33.3452753  46.2486493
  57.0116993  32.5352753  45.9326493  56.6466993  33.8322753  45.6766493
  57.0136993  33.2972753  46.1176493  62.6916993  29.4642753  38.7316493
  63.4086993  29.1172753  38.3756493  62.6576993  30.2642753  38.3836493
  62.7926993  29.5312753  38.6276493  54.6626993  35.5892753  49.8296493
  55.1556993  35.5332753  50.5476493  54.8506993  34.8562753  49.3946493
  54.7636993  35.4722753  49.8716493  64.1006993  18.1052753  22.9704083
  63.8556993  18.5932753  22.2904083  64.9636993  18.0322753  22.8704083
  64.1916993  18.1662753  22.8554083  63.9096993  25.0212753  27.6414083
  63.3856993  25.6172753  28.0044083  64.3066993  24.6532753  28.3254083
  63.8906993  25.0552753  27.7964083  53.7786993  29.1612753  23.0974083
  53.3376993  29.2792753  23.8404083  53.4956993  28.3862753  22.8124083
  53.6716993  29.0642753  23.1654083  53.5216993  22.9532753  19.6044083
  52.7436993  23.1152753  19.2444083  53.5606993  22.0822753  19.6264083
  53.4126993  22.8482753  19.5544083  56.6606993  28.2162753  18.2764083
  56.2686993  27.8452753  17.5904083  56.5806993  27.6182753  18.9054083
  56.5906993  28.0732753  18.2674083  56.2876993  29.8572753  22.1764083
  56.8956993  29.6872753  22.7794083  55.5366993  29.7172753  22.5974083
  56.2666993  29.8112753  22.3274083  60.5696993  19.1922753  22.1254083
  60.4996993  19.8692753  21.5794083  61.3106993  18.8042753  21.8764083
  60.6686993  19.2352753  22.0074083  55.1786993  32.9482753  18.2534083
  55.6456993  33.0322753  17.5214083  55.6336993  32.3702753  18.7224083
  55.3146993  32.8752753  18.2144083  53.7186993  31.8962753  29.3524083
  53.8476993  31.6162753  30.1684083  53.1086993  31.3552753  29.0434083
  53.6476993  31.7752753  29.4274083  60.2926993  29.4212753  34.4194083
  60.0566993  29.4182753  35.2594083  59.5446993  29.2732753  33.9954083
  60.1466993  29.3982753  34.4804083  55.1646993  26.4172753  23.5544083
  54.7026993  26.0252753  22.9274083  55.8646993  25.9042753  23.6464083
  55.1996993  26.2842753  23.4754083  59.6726993  22.0272753  28.9014083
  60.3506993  22.0452753  28.3524083  59.6276993  21.1912753  29.1464083
  59.7656993  21.9062753  28.8564083  60.2746993  32.6132753  31.6824083
  60.4126993  33.3732753  31.2754083  61.0656993  32.2482753  31.7094083
  60.4116993  32.6722753  31.6264083  57.1656993  24.5172753  23.5774083
  57.9826993  24.3302753  23.8204083  56.6886993  23.9032753  23.9734083
  57.2156993  24.3992753  23.6724083  61.3696993  30.4982753  26.1874083
  61.7176993  29.6992753  26.2174083  62.0346993  31.0022753  25.9324083
  61.5196993  30.4542753  26.1544083  61.4266993  29.9472753  22.3984083
  61.7576993  29.3032753  22.8844083  61.6666993  29.7362753  21.5874083
  61.5106993  29.8212753  22.3504083  63.3946993  24.0782753  33.7374083
  62.5466993  23.9792753  33.5594083  63.4236993  24.8232753  34.1914083
  63.2736993  24.1742753  33.7784083  57.7626993  19.6112753  22.8434083
  57.4666993  20.1122753  22.1934083  58.6296993  19.6892753  22.7864083
  57.8466993  19.6972753  22.7394083  60.7416993  18.7532753  25.0664083
  60.8146993  19.6132753  25.1954083  60.7036993  18.6782753  24.1984083
  60.7466993  18.8692753  24.9574083  65.4146993  21.6792753  17.3654083
  64.9646993  22.3602753  17.6724083  65.5286993  21.1752753  18.0684083
  65.3656993  21.7052753  17.5144083  53.6206993  24.1782753  26.5674083
  53.3646993  25.0092753  26.4924083  52.9566993  23.7952753  26.9844083
  53.4846993  24.2442753  26.6184083  53.5306993  33.8882753  24.4674083
  52.9386993  34.4462753  24.1544083  53.9566993  33.6192753  23.7554083
  53.5066993  33.9302753  24.3164083  59.3706993  31.7322753  21.9474083
  58.7916993  31.4572753  22.5394083  59.9946993  31.1232753  21.9724083
  59.3776993  31.6022753  22.0384083  65.5136993  34.0202753  19.4694083
  66.2406993  34.4922753  19.5714083  65.7426993  33.2262753  19.7494083
  65.6556993  33.9732753  19.5264083  63.6816993  34.4122753  21.4594083
  63.8956993  34.9392753  22.1214083  64.4486993  34.2382753  21.0804083
  63.8266993  34.4642753  21.5014083  56.6496993  18.9952753  27.0584083
  56.1286993  18.3672753  26.7504083  57.2406993  18.5582753  27.5294083
  56.6606993  18.8372753  27.0824083  59.9556993  21.1282753  36.3564083
  60.0726993  20.6742753  35.6204083  60.2436993  21.9262753  36.1534083
  60.0156993  21.1792753  36.2174083  55.0756993  32.5582753  22.3984083
  55.7316993  31.9832753  22.4134083  55.4646993  33.3072753  22.1774083
  55.2306993  32.5832753  22.3684083  55.6886993  20.7252753  35.3404083
  54.9106993  20.3352753  35.2684083  56.1796993  20.3132753  34.7494083
  55.6456993  20.6062753  35.2424083  55.8936993  31.0452753  25.8984083
  56.3166993  30.6892753  25.2244083  56.2176993  30.6232753  26.5904083
  56.0036993  30.9302753  25.9014083  59.1246993  33.8972753  25.1944083
  59.9686993  34.0012753  24.9994083  58.8276993  34.7152753  25.2624083
  59.2056993  34.0332753  25.1754083  62.3376993  18.3682753  34.5084083
  62.5156993  17.5592753  34.2334083  62.1946993  18.8092753  33.7694083
  62.3426993  18.3142753  34.3584083  62.9316993  23.2942753  23.2814083
  63.2186993  23.0622753  22.4914083  63.6636993  23.3732753  23.7504083
  63.0816993  23.2712753  23.2344083  63.6536993  23.6332753  18.4024083
  63.9346993  24.4212753  18.6514083  62.8776993  23.7982753  18.0394083
  63.5806993  23.7742753  18.3854083  58.1226993  35.1162753  30.9344083
  58.4146993  35.0492753  31.7544083  57.4966993  34.5112753  30.8894083
  58.0736993  35.0172753  31.0494083  53.0366993  21.2732753  32.9264083
  53.0326993  21.8602753  33.5724083  53.6306993  21.5852753  32.3694083
  53.1236993  21.4062753  32.9394083  65.3746993  31.6072753  33.4684083
  65.3406993  31.9892753  34.2524083  66.2286993  31.5652753  33.2974083
  65.4956993  31.6572753  33.5594083  62.5126993  31.8042753  18.2184083
  62.3316993  32.3492753  18.8754083  63.2786993  32.0942753  17.9174083
  62.5986993  31.9282753  18.2714083  53.9736993  20.8682753  21.8414083
  53.8596993  20.0042753  21.8724083  53.4986993  21.1622753  22.5114083
  53.8866993  20.7842753  21.9444083  56.1156993  33.2782753  30.0564083
  55.4176993  32.7702753  30.1824083  56.3756993  33.0732753  29.2484083
  56.0506993  33.1732753  29.9554083  63.2776993  22.0762753  20.5864083
  62.7696993  21.4142753  20.3324083  63.3296993  22.5802753  19.8764083
  63.2106993  22.0532753  20.4444083  63.8266993  34.7712753  30.9664083
  64.5946993  34.6912753  30.5604083  63.2436993  34.6502753  30.3284083
  63.8536993  34.7412753  30.8124083  63.2776993  19.0172753  20.4774083
  62.8226993  18.6152753  19.8514083  64.0506993  19.1722753  20.1024083
  63.3246993  18.9812753  20.3294083  61.8756993  21.3842753  24.9994083
  61.9496993  21.9522753  24.3414083  61.9966993  21.8762753  25.7094083
  61.9036993  21.5412753  25.0074083  57.4766993  32.1292753  32.6234083
  58.3176993  32.1922753  32.4014083  57.4396993  32.5262753  33.3994083
  57.5956993  32.1972753  32.7054083  56.4836993  17.2072753  23.3474083
  57.0196993  17.8952753  23.3374083  56.4866993  16.9332753  22.5194083
  56.5626993  17.2682753  23.2234083  59.4396993  27.6402753  27.3724083
  59.6116993  27.4302753  28.2014083  58.7846993  27.1062753  27.1564083
  59.3686993  27.5302753  27.4634083  65.6676993  21.5542753  30.8874083
  65.5726993  21.8732753  31.6934083  65.0746993  20.9152753  30.8494083
  65.5656993  21.5062753  31.0014083  60.1896993  27.5782753  29.9624083
  60.2426993  28.4252753  30.1644083  59.9046993  27.2082753  30.6994083
  60.1556993  27.6482753  30.1004083  66.3666993  28.2732753  29.0924083
  65.8526993  27.8612753  29.6634083  66.2406993  29.1172753  29.2734083
  66.2726993  28.3372753  29.2034083  53.0106993  31.9492753  36.1734083
  53.7666993  32.2982753  36.4314083  53.1876993  31.0962753  36.1164083
  53.1486993  31.8742753  36.2034083  56.9316993  21.0172753  25.0014083
  57.2036993  20.5872753  24.2934083  56.7556993  20.3812753  25.5724083
  56.9456993  20.8602753  24.9814083  56.7556993  28.4442753  24.5504083
  57.6066993  28.3642753  24.3774083  56.3986993  27.7622753  24.1384083
  56.8286993  28.3312753  24.4634083  55.5226993  35.1692753  25.7874083
  54.8496993  34.6712753  25.5424083  55.9256993  35.3542753  25.0364083
  55.4826993  35.1232753  25.6404083  55.0726993  22.1192753  28.0834083
  55.9156993  22.3392753  28.0404083  54.6836993  22.6922753  27.5524083
  55.1396993  22.2362753  27.9984083  59.1236993  28.4512753  22.7854083
  59.8366993  28.9462753  22.8754083  59.3456993  27.8842753  22.1594083
  59.2616993  28.4402753  22.7064083  53.2796993  30.0942753  26.1054083
  52.6126993  30.5822753  26.3814083  53.9596993  30.6392753  26.1344083
  53.2816993  30.2462753  26.1504083  60.9266993  23.8042753  36.2014083
  60.4426993  24.3812753  36.6434083  60.8986993  24.0992753  35.3804083
  60.8506993  23.9332753  36.1454083  53.3456993  26.7782753  21.2084083
  53.1606993  25.9392753  21.3604083  54.0046993  26.7422753  20.6384083
  53.4156993  26.6492753  21.1464083  63.6466993  32.1542753  25.1124083
  63.1236993  32.7882753  24.8194083  63.9566993  31.7902753  24.3834083
  63.6146993  32.1942753  24.9614083  53.5176993  30.9422753  20.7834083
  54.0696993  31.5112753  21.1474083  53.2856993  30.4272753  21.4484083
  53.5646993  30.9502753  20.9354083  57.7216993  29.9422753  27.8724083
  58.1886993  30.2312753  28.5504083  58.2936993  29.4642753  27.4184083
  57.8756993  29.9142753  27.9054083  53.3476993  29.3912753  18.4114083
  54.1036993  28.9592753  18.4694083  53.3626993  29.9232753  19.1024083
  53.4616993  29.4062753  18.5224083  54.2876993  27.6122753  26.4164083
  54.7186993  27.4832753  25.6694083  54.0826993  28.4602753  26.3904083
  54.3206993  27.7182753  26.3024083  60.6336993  21.1762753  20.0664083
  60.6316993  21.0592753  19.2014083  60.4526993  22.0242753  20.1584083
  60.6066993  21.2842753  19.9524083  58.3716993  31.1282753  24.6984083
  58.4976993  31.9712753  24.8854083  59.0396993  30.7292753  25.0944083
  58.4896993  31.1942753  24.7844083  56.5016993  24.6112753  34.5604083
  55.9656993  24.1052753  35.0284083  56.5216993  24.2212753  33.7804083
  56.4246993  24.4782753  34.5144083  56.9866993  24.0082753  19.7004083
  56.8586993  23.5602753  20.4384083  56.4046993  23.6662753  19.1484083
  56.8816993  23.8912753  19.7284083  57.1536993  25.8382753  26.2994083
  56.3726993  25.7792753  25.9164083  57.2256993  25.0862753  26.7364083
  57.0486993  25.7192753  26.3074083  57.5836993  25.5752753  29.7674083
  57.6086993  24.9002753  29.2164083  56.9376993  26.0712753  29.4554083
  57.4926993  25.5482753  29.6404083  61.6836993  34.3522753  29.1594083
  61.4066993  33.7112753  28.6364083  61.4756993  35.0782753  28.7214083
  61.6126993  34.3652753  29.0174083  64.1236993  19.1942753  31.5924083
  64.2726993  18.3692753  31.3494083  64.5026993  19.2492753  32.3764083
  64.2016993  19.0802753  31.6724083  65.6716993  21.2572753  21.6744083
  66.1616993  21.9742753  21.5974083  64.8816993  21.5182753  21.4114083
  65.6276993  21.4012753  21.6244083  55.3826993  26.9302753  35.3264083
  55.3456993  27.4312753  34.6124083  55.7136993  26.1782753  35.0314083
  55.4256993  26.8922753  35.1774083  61.2816993  31.9802753  34.7614083
  61.6356993  31.8022753  35.5384083  60.8456993  31.2512753  34.5624083
  61.2696993  31.8462753  34.8474083  62.2536993  22.7272753  27.3994083
  62.7336993  23.4262753  27.6074083  62.6266993  22.0802753  27.8504083
  62.3796993  22.7352753  27.4964083  64.4426993  25.8962753  19.6734083
  64.4346993  26.6182753  19.1834083  63.8036993  26.0312753  20.2504083
  64.3476993  26.0232753  19.6864083  65.4596993  32.8322753  27.4984083
  64.8566993  32.5362753  26.9414083  66.0046993  33.2842753  26.9894083
  65.4506993  32.8552753  27.3404083  65.4726993  29.6832753  26.8984083
  64.6756993  29.9072753  27.1724083  65.7306993  29.0892753  27.4834083
  65.3926993  29.6282753  27.0254083  59.3646993  34.4952753  21.3464083
  59.2176993  33.7192753  21.7174083  60.0536993  34.3482753  20.8314083
  59.4446993  34.3582753  21.3254083  59.0356993  18.2382753  19.3344083
  59.1326993  18.1312753  20.1954083  58.3276993  18.7442753  19.2694083
  58.9456993  18.2972753  19.4524083  61.6566993  34.0112753  19.7484083
  62.2786993  34.1742753  20.3384083  61.6926993  34.7022753  19.2164083
  61.7536993  34.1372753  19.7574083  64.9236993  33.0302753  36.0214083
  65.0876993  33.3132753  36.8304083  65.1866993  33.6912753  35.5164083
  64.9866993  33.1702753  36.0664083  56.1576993  26.5452753  20.5774083
  56.4816993  25.7662753  20.3554083  56.8036993  26.9132753  21.0324083
  56.3006993  26.4842753  20.6114083  64.4636993  27.4872753  31.3444083
  64.3086993  28.0972753  31.9484083  64.9976993  26.9292753  31.7504083
  64.5196993  27.4952753  31.4934083  53.1546993  18.2062753  21.5454083
  53.2836993  17.4982753  21.0534083  52.7876993  17.8882753  22.2704083
  53.1196993  18.0542753  21.5804083  62.8476993  25.8872753  22.0024083
  62.9066993  26.5372753  22.5814083  62.6586993  25.1912753  22.4934083
  62.8286993  25.8802753  22.1604083  57.3436993  20.4042753  18.5144083
  56.8326993  20.4572753  17.8084083  58.1276993  20.6442753  18.2184083
  57.3836993  20.4472753  18.3664083  62.0706993  27.9342753  26.4334083
  61.2236993  27.7402753  26.5144083  62.3946993  27.7692753  27.2264083
  61.9926993  27.8812753  26.5624083  58.8226993  34.6642753  17.3194083
  59.2616993  33.9672753  17.6074083  59.0296993  35.2882753  17.8924083
  58.9186993  34.6532753  17.4464083  55.9186993  27.6272753  28.7494083
  56.6406993  28.1152753  28.7124083  55.6486993  27.5972753  27.9204083
  55.9856993  27.6952753  28.6214083  59.1486993  22.7982753  25.4844083
  59.9946993  22.6082753  25.5824083  58.7786993  22.0212753  25.3464083
  59.2186993  22.6552753  25.4784083  53.9696993  24.1362753  22.1394083
  54.4586993  23.8442753  22.8004083  54.0986993  23.5432753  21.5124083
  54.0606993  24.0052753  22.1444083  58.4946993  25.5702753  17.6254083
  57.8846993  25.1652753  18.0994083  58.1086993  25.6882753  16.8524083
  58.3476993  25.5272753  17.5814083  55.3136993  28.6792753  33.0274083
  54.8926993  28.1612753  32.4664083  54.9616993  29.4652753  32.8844083
  55.1996993  28.7192753  32.9234083  59.9496993  24.0312753  20.3354083
  60.2216993  24.8572753  20.4024083  59.0866993  24.1062753  20.2394083
  59.8626993  24.1642753  20.3304083  53.4296993  20.0012753  26.8714083
  53.4736993  20.3452753  26.0704083  54.1846993  20.2382753  27.2384083
  53.5476993  20.0872753  26.8074083  65.3706993  29.3402753  18.3414083
  66.0546993  28.8262753  18.1724083  64.9536993  29.3862753  17.5764083
  65.4096993  29.2712753  18.2034083  60.0526993  30.4902753  29.6454083
  59.7546993  31.0822753  30.2124083  60.1076993  30.9322753  28.8964083
  60.0166993  30.6432753  29.6184083  58.0316993  29.4402753  33.0434083
  57.2256993  29.1502753  33.2104083  57.9426993  30.3082753  33.0494083
  57.8996993  29.5252753  33.0684083  62.5686993  26.9132753  29.1364083
  63.0446993  27.2872753  29.7644083  61.7456993  27.0472753  29.3954083
  62.5176993  26.9882753  29.2674083  59.2786993  22.5162753  31.8774083
  59.4396993  21.7722753  32.3044083  59.2336993  22.2672753  31.0424083
  59.2956993  22.3692753  31.8174083  61.8326993  34.3062753  24.3644083
  62.3786993  34.9852753  24.4184083  61.4826993  34.3882753  23.5694083
  61.8616993  34.4192753  24.2544083  61.0306993  18.3242753  31.7574083
  61.7356993  18.6442753  31.3554083  61.2716993  17.5172753  31.9844083
  61.1696993  18.2522753  31.7314083  60.0156993  32.5342753  27.7534083
  59.3916993  33.1162753  27.5714083  60.2636993  32.2482753  26.9674083
  59.9596993  32.5782753  27.6104083  64.3246993  29.1682753  34.7424083
  65.0816993  29.4542753  34.4164083  63.7776993  29.2202753  34.0644083
  64.3556993  29.2182753  34.5934083  61.6096993  27.3102753  17.6684083
  60.8046993  27.1332753  17.3834083  61.5766993  28.1612753  17.8604083
  61.4856993  27.4092753  17.6554083  57.5396993  23.3772753  27.8184083
  57.9796993  23.2742753  27.0724083  58.0846993  23.0642753  28.4234083
  57.6846993  23.3162753  27.7974083  65.5556993  22.4792753  33.4104083
  64.9076993  22.9492753  33.7584083  66.1206993  22.3902753  34.0694083
  65.5436993  22.5352753  33.5594083  65.2436993  24.0162753  29.7084083
  65.5456993  24.4362753  30.4114083  65.2796993  23.1762753  29.9404083
  65.2936993  23.9542753  29.8464083  62.6686993  34.1832753  33.6334083
  63.1466993  33.5832753  33.2174083  62.3176993  33.7402753  34.2984083
  62.6876993  34.0292753  33.6704083  61.0866993  18.3622753  27.8654083
  60.2606993  18.2132753  28.1024083  61.0466993  18.3972753  26.9944083
  60.9586993  18.3452753  27.7714083  62.7276993  29.4022753  32.6534083
  61.9326993  29.3382753  33.0044083  62.7986993  30.2492753  32.4584083
  62.6206993  29.5172753  32.6764083  53.6516993  18.7602753  33.9004083
  53.5116993  19.5552753  33.5694083  52.8656993  18.5172753  34.1894083
  53.5146993  18.8422753  33.8944083  58.5576993  35.6092753  27.9704083
  58.5686993  35.6682753  28.8404083  58.1326993  34.8622753  27.8204083
  58.4966993  35.5072753  28.0764083  56.7156993  21.5042753  21.1254083
  56.8416993  21.1752753  20.3274083  55.9036993  21.2552753  21.3244083
  56.6146993  21.4192753  21.0374083  65.4726993  28.6572753  24.1694083
  65.5486993  28.9982753  24.9684083  65.6416993  27.8102753  24.2904083
  65.5086993  28.5822753  24.3054083  62.9946993  27.9312753  23.7344083
  62.6966993  27.6162753  24.4914083  63.6896993  28.4042753  23.9694083
  63.0536993  27.9542753  23.8814083  63.2166993  32.0492753  31.7614083
  63.9036993  31.9352753  32.2864083  63.3506993  32.8402753  31.4174083
  63.3376993  32.1492753  31.7884083  55.3216993  35.1072753  33.4124083
  54.6676993  34.5382753  33.5104083  54.9466993  35.8802753  33.5634083
  55.1696993  35.1372753  33.4494083  63.8396993  26.5132753  35.3354083
  64.1626993  27.1992753  34.9034083  63.1356993  26.8362753  35.7374083
  63.7826993  26.6622753  35.3304083  63.6246993  29.9772753  29.1944083
  62.9306993  30.3792753  29.5374083  64.3016993  30.4102753  29.5334083
  63.6216993  30.1002753  29.2954083  56.6926993  23.5152753  31.5414083
  57.0676993  24.1342753  31.0544083  57.3666993  23.0412753  31.8264083
  56.8476993  23.5372753  31.5114083  54.4676993  21.9632753  30.8164083
  54.5446993  21.7942753  29.9634083  55.2136993  22.3692753  31.0134083
  54.5886993  21.9982753  30.7194083  57.0216993  19.3732753  33.2274083
  56.9406993  18.5292753  33.4334083  56.7076993  19.4172753  32.4144083
  56.9636993  19.2552753  33.1374083  63.9466993  31.5682753  22.3634083
  63.7416993  32.4012753  22.2044083  63.1716993  31.1862753  22.4854083
  63.8016993  31.6352753  22.3584083  53.8646993  27.1892753  31.0404083
  54.1846993  27.4082753  30.2594083  53.7646993  26.3242753  30.9854083
  53.8966993  27.0942753  30.9174083  55.3206993  23.1252753  17.6584083
  54.6486993  23.1392753  18.2144083  55.4156993  22.2772753  17.4744083
  55.2356993  23.0022753  17.7134083  65.0076993  19.5492753  34.3944083
  65.0996993  20.2612753  34.8884083  64.3706993  19.1042753  34.7914083
  64.9266993  19.5882753  34.5264083  64.0016993  19.7392753  25.2484083
  63.3016993  20.2572753  25.1924083  64.0396993  19.3592753  24.4644083
  63.9036993  19.7602753  25.1244083  59.3086993  31.8302753  18.7724083
  59.7496993  31.9102753  19.5204083  58.5036993  31.6142753  19.0304083
  59.2546993  31.8102753  18.9214083  58.6276993  26.4812753  32.4254083
  58.2316993  27.2552753  32.5004083  58.2216993  26.1082753  31.7494083
  58.5096993  26.5402753  32.3364083  56.6376993  30.9002753  19.3734083
  56.3936993  30.5932753  20.1534083  56.6046993  30.1972753  18.8574083
  56.5966993  30.7512753  19.4124083  59.4566993  29.1452753  18.1164083
  58.6386993  28.8772753  18.2564083  59.4286993  29.9972753  18.3014083
  59.3316993  29.2322753  18.1644083  59.0566993  19.4582753  29.8754083
  58.1926993  19.5422753  29.9554083  59.2766993  18.9442753  30.5444083
  58.9616993  19.3952753  29.9864083  63.1596993  20.2062753  28.2494083
  62.4226993  19.7522753  28.3624083  63.7306993  19.8042753  28.7724083
  63.1346993  20.0792753  28.3434083  65.8916993  31.0542753  30.0374083
  66.0976993  31.3552753  30.8294083  65.8306993  31.7762753  29.5524083
  65.9126993  31.2052753  30.0824083  65.4256993  35.2682753  34.2834083
  64.6726993  35.2502753  33.8424083  65.5936993  36.1202753  34.3674083
  65.3396993  35.3912753  34.2304083  60.6626993  24.5352753  33.4534083
  60.3406993  23.9592753  32.8834083  60.3036993  25.2902753  33.2074083
  60.5626993  24.5612753  33.3334083  61.4586993  17.7872753  18.0804083
  61.5366993  18.0342753  17.2474083  60.7156993  18.1642753  18.3384083
  61.3606993  17.8792753  17.9954083  59.0976993  34.8912753  33.7014083
  59.1386993  35.0172753  34.5644083  59.7486993  34.3312753  33.5454083
  59.1996993  34.8272753  33.8064083  56.2766993  19.5412753  30.5234083
  55.9336993  18.7742753  30.2894083  55.5816993  20.0652753  30.5874083
  56.1236993  19.5052753  30.4984083  65.3226993  18.3972753  27.5004083
  65.9926993  18.9412753  27.6274083  64.8196993  18.8212753  26.9274083
  65.3476993  18.5402753  27.4344083  56.6906993  33.2742753  35.0614083
  57.2856993  33.7052753  35.5334083  56.3266993  33.8982753  34.5724083
  56.7246993  33.4302753  35.0584083  64.6816993  24.2052753  24.9934083
  65.2326993  23.5982753  25.2934083  64.2566993  24.4682753  25.7084083
  64.7006993  24.1542753  25.1424083  54.9296993  22.8552753  24.4794083
  54.5616993  23.1572753  25.2104083  55.4636993  22.2262753  24.7634083
  54.9536993  22.8072753  24.6294083  54.6176993  31.2632753  31.9904083
  54.0436993  31.6792753  32.4994083  55.3506993  31.7282753  32.0854083
  54.6416993  31.3932753  32.0794083  56.4036993  34.5302753  20.7654083
  56.2586993  34.6862753  19.9194083  57.2696993  34.6092753  20.8434083
  56.5106993  34.5652753  20.6524083  60.5706993  26.9272753  20.4934083
  60.6706993  27.0662753  19.6384083  61.3886993  26.8672753  20.7894083
  60.7056993  26.9382753  20.4104083  65.8056993  31.2562753  20.2954083
  65.5546993  31.1282753  21.1214083  65.4886993  30.5612753  19.8744083
  65.7216993  31.1352753  20.3554083  59.7096993  19.9022753  33.6094083
  59.9436993  19.3262753  32.9964083  58.8676993  19.7212753  33.7504083
  59.6196993  19.7902753  33.5394083  57.0906993  33.3452753  27.2424083
  57.0116993  32.5352753  26.9264083  56.6466993  33.8322753  26.6704083
  57.0136993  33.2972753  27.1114083  62.6916993  29.4642753  19.7254083
  63.4086993  29.1172753  19.3694083  62.6576993  30.2642753  19.3774083
  62.7926993  29.5312753  19.6214083  54.6626993  35.5892753  30.8234083
  55.1556993  35.5332753  31.5414083  54.8506993  34.8562753  30.3884083
  54.7636993  35.4722753  30.8654083  64.1006993  18.1052753   3.9641673
  63.8556993  18.5932753   3.2841673  64.9636993  18.0322753   3.8641673
  64.1916993  18.1662753   3.8491673  63.9096993  25.0212753   8.6351673
  63.3856993  25.6172753   8.9981673  64.3066993  24.6532753   9.3191673
  63.8906993  25.0552753   8.7901673  53.7786993  29.1612753   4.0911673
  53.3376993  29.2792753   4.8341673  53.4956993  28.3862753   3.8061673
  53.6716993  29.0642753   4.1591673  56.2876993  29.8572753   3.1701673
  56.8956993  29.6872753   3.7731673  55.5366993  29.7172753   3.5911673
  56.2666993  29.8112753   3.3211673  60.5696993  19.1922753   3.1191673
  60.4996993  19.8692753   2.5731673  61.3106993  18.8042753   2.8701673
  60.6686993  19.2352753   3.0011673  53.7186993  31.8962753  10.3461673
  53.8476993  31.6162753  11.1621673  53.1086993  31.3552753  10.0371673
  53.6476993  31.7752753  10.4211673  60.2926993  29.4212753  15.4131673
  60.0566993  29.4182753  16.2531673  59.5446993  29.2732753  14.9891673
  60.1466993  29.3982753  15.4741673  55.1646993  26.4172753   4.5481673
  54.7026993  26.0252753   3.9211673  55.8646993  25.9042753   4.6401673
  55.1996993  26.2842753   4.4691673  59.6726993  22.0272753   9.8951673
  60.3506993  22.0452753   9.3461673  59.6276993  21.1912753  10.1401673
  59.7656993  21.9062753   9.8501673  60.2746993  32.6132753  12.6761673
  60.4126993  33.3732753  12.2691673  61.0656993  32.2482753  12.7031673
  60.4116993  32.6722753  12.6201673  57.1656993  24.5172753   4.5711673
  57.9826993  24.3302753   4.8141673  56.6886993  23.9032753   4.9671673
  57.2156993  24.3992753   4.6661673  61.3696993  30.4982753   7.1811673
  61.7176993  29.6992753   7.2111673  62.0346993  31.0022753   6.9261673
  61.5196993  30.4542753   7.1481673  61.4266993  29.9472753   3.3921673
  61.7576993  29.3032753   3.8781673  61.6666993  29.7362753   2.5811673
  61.5106993  29.8212753   3.3441673  63.3946993  24.0782753  14.7311673
  62.5466993  23.9792753  14.5531673  63.4236993  24.8232753  15.1851673
  63.2736993  24.1742753  14.7721673  57.7626993  19.6112753   3.8371673
  57.4666993  20.1122753   3.1871673  58.6296993  19.6892753   3.7801673
  57.8466993  19.6972753   3.7331673  60.7416993  18.7532753   6.0601673
  60.8146993  19.6132753   6.1891673  60.7036993  18.6782753   5.1921673
  60.7466993  18.8692753   5.9511673  53.6206993  24.1782753   7.5611673
  53.3646993  25.0092753   7.4861673  52.9566993  23.7952753   7.9781673
  53.4846993  24.2442753   7.6121673  53.5306993  33.8882753   5.4611673
  52.9386993  34.4462753   5.1481673  53.9566993  33.6192753   4.7491673
  53.5066993  33.9302753   5.3101673  59.3706993  31.7322753   2.9411673
  58.7916993  31.4572753   3.5331673  59.9946993  31.1232753   2.9661673
  59.3776993  31.6022753   3.0321673  63.6816993  34.4122753   2.4531673
  63.8956993  34.9392753   3.1151673  64.4486993  34.2382753   2.0741673
  63.8266993  34.4642753   2.4951673  56.6496993  18.9952753   8.0521673
  56.1286993  18.3672753   7.7441673  57.2406993  18.5582753   8.5231673
  56.6606993  18.8372753   8.0761673  59.9556993  21.1282753  17.3501673
  60.0726993  20.6742753  16.6141673  60.2436993  21.9262753  17.1471673
  60.0156993  21.1792753  17.2111673  55.0756993  32.5582753   3.3921673
  55.7316993  31.9832753   3.4071673  55.4646993  33.3072753   3.1711673
  55.2306993  32.5832753   3.3621673  55.6886993  20.7252753  16.3341673
  54.9106993  20.3352753  16.2621673  56.1796993  20.3132753  15.7431673
  55.6456993  20.6062753  16.2361673  55.8936993  31.0452753   6.8921673
  56.3166993  30.6892753   6.2181673  56.2176993  30.6232753   7.5841673
  56.0036993  30.9302753   6.8951673  59.1246993  33.8972753   6.1881673
  59.9686993  34.0012753   5.9931673  58.8276993  34.7152753   6.2561673
  59.2056993  34.0332753   6.1691673  62.3376993  18.3682753  15.5021673
  62.5156993  17.5592753  15.2271673  62.1946993  18.8092753  14.7631673
  62.3426993  18.3142753  15.3521673  62.9316993  23.2942753   4.2751673
  63.2186993  23.0622753   3.4851673  63.6636993  23.3732753   4.7441673
  63.0816993  23.2712753   4.2281673  58.1226993  35.1162753  11.9281673
  58.4146993  35.0492753  12.7481673  57.4966993  34.5112753  11.8831673
  58.0736993  35.0172753  12.0431673  53.0366993  21.2732753  13.9201673
  53.0326993  21.8602753  14.5661673  53.6306993  21.5852753  13.3631673
  53.1236993  21.4062753  13.9331673  65.3746993  31.6072753  14.4621673
  65.3406993  31.9892753  15.2461673  66.2286993  31.5652753  14.2911673
  65.4956993  31.6572753  14.5531673  53.9736993  20.8682753   2.8351673
  53.8596993  20.0042753   2.8661673  53.4986993  21.1622753   3.5051673
  53.8866993  20.7842753   2.9381673  56.1156993  33.2782753  11.0501673
  55.4176993  32.7702753  11.1761673  56.3756993  33.0732753  10.2421673
  56.0506993  33.1732753  10.9491673  63.8266993  34.7712753  11.9601673
  64.5946993  34.6912753  11.5541673  63.2436993  34.6502753  11.3221673
  63.8536993  34.7412753  11.8061673  61.8756993  21.3842753   5.9931673
  61.9496993  21.9522753   5.3351673  61.9966993  21.8762753   6.7031673
  61.9036993  21.5412753   6.0011673  57.4766993  32.1292753  13.6171673
  58.3176993  32.1922753  13.3951673  57.4396993  32.5262753  14.3931673
  57.5956993  32.1972753  13.6991673  56.4836993  17.2072753   4.3411673
  57.0196993  17.8952753   4.3311673  56.4866993  16.9332753   3.5131673
  56.5626993  17.2682753   4.2171673  59.4396993  27.6402753   8.3661673
  59.6116993  27.4302753   9.1951673  58.7846993  27.1062753   8.1501673
  59.3686993  27.5302753   8.4571673  65.6676993  21.5542753  11.8811673
  65.5726993  21.8732753  12.6871673  65.0746993  20.9152753  11.8431673
  65.5656993  21.5062753  11.9951673  60.1896993  27.5782753  10.9561673
  60.2426993  28.4252753  11.1581673  59.9046993  27.2082753  11.6931673
  60.1556993  27.6482753  11.0941673  66.3666993  28.2732753  10.0861673
  65.8526993  27.8612753  10.6571673  66.2406993  29.1172753  10.2671673
  66.2726993  28.3372753  10.1971673  53.0106993  31.9492753  17.1671673
  53.7666993  32.2982753  17.4251673  53.1876993  31.0962753  17.1101673
  53.1486993  31.8742753  17.1971673  56.9316993  21.0172753   5.9951673
  57.2036993  20.5872753   5.2871673  56.7556993  20.3812753   6.5661673
  56.9456993  20.8602753   5.9751673  56.7556993  28.4442753   5.5441673
  57.6066993  28.3642753   5.3711673  56.3986993  27.7622753   5.1321673
  56.8286993  28.3312753   5.4571673  55.5226993  35.1692753   6.7811673
  54.8496993  34.6712753   6.5361673  55.9256993  35.3542753   6.0301673
  55.4826993  35.1232753   6.6341673  55.0726993  22.1192753   9.0771673
  55.9156993  22.3392753   9.0341673  54.6836993  22.6922753   8.5461673
  55.1396993  22.2362753   8.9921673  59.1236993  28.4512753   3.7791673
  59.8366993  28.9462753   3.8691673  59.3456993  27.8842753   3.1531673
  59.2616993  28.4402753   3.7001673  53.2796993  30.0942753   7.0991673
  52.6126993  30.5822753   7.3751673  53.9596993  30.6392753   7.1281673
  53.2816993  30.2462753   7.1441673  60.9266993  23.8042753  17.1951673
  60.4426993  24.3812753  17.6371673  60.8986993  24.0992753  16.3741673
  60.8506993  23.9332753  17.1391673  53.3456993  26.7782753   2.2021673
  53.1606993  25.9392753   2.3541673  54.0046993  26.7422753   1.6321673
  53.4156993  26.6492753   2.1401673  63.6466993  32.1542753   6.1061673
  63.1236993  32.7882753   5.8131673  63.9566993  31.7902753   5.3771673
  63.6146993  32.1942753   5.9551673  53.5176993  30.9422753   1.7771673
  54.0696993  31.5112753   2.1411673  53.2856993  30.4272753   2.4421673
  53.5646993  30.9502753   1.9291673  57.7216993  29.9422753   8.8661673
  58.1886993  30.2312753   9.5441673  58.2936993  29.4642753   8.4121673
  57.8756993  29.9142753   8.8991673  54.2876993  27.6122753   7.4101673
  54.7186993  27.4832753   6.6631673  54.0826993  28.4602753   7.3841673
  54.3206993  27.7182753   7.2961673  58.3716993  31.1282753   5.6921673
  58.4976993  31.9712753   5.8791673  59.0396993  30.7292753   6.0881673
  58.4896993  31.1942753   5.7781673  56.5016993  24.6112753  15.5541673
  55.9656993  24.1052753  16.0221673  56.5216993  24.2212753  14.7741673
  56.4246993  24.4782753  15.5081673  57.1536993  25.8382753   7.2931673
  56.3726993  25.7792753   6.9101673  57.2256993  25.0862753   7.7301673
  57.0486993  25.7192753   7.3011673  57.5836993  25.5752753  10.7611673
  57.6086993  24.9002753  10.2101673  56.9376993  26.0712753  10.4491673
  57.4926993  25.5482753  10.6341673  61.6836993  34.3522753  10.1531673
  61.4066993  33.7112753   9.6301673  61.4756993  35.0782753   9.7151673
  61.6126993  34.3652753  10.0111673  64.1236993  19.1942753  12.5861673
  64.2726993  18.3692753  12.3431673  64.5026993  19.2492753  13.3701673
  64.2016993  19.0802753  12.6661673  65.6716993  21.2572753   2.6681673
  66.1616993  21.9742753   2.5911673  64.8816993  21.5182753   2.4051673
  65.6276993  21.4012753   2.6181673  55.3826993  26.9302753  16.3201673
  55.3456993  27.4312753  15.6061673  55.7136993  26.1782753  16.0251673
  55.4256993  26.8922753  16.1711673  61.2816993  31.9802753  15.7551673
  61.6356993  31.8022753  16.5321673  60.8456993  31.2512753  15.5561673
  61.2696993  31.8462753  15.8411673  62.2536993  22.7272753   8.3931673
  62.7336993  23.4262753   8.6011673  62.6266993  22.0802753   8.8441673
  62.3796993  22.7352753   8.4901673  65.4596993  32.8322753   8.4921673
  64.8566993  32.5362753   7.9351673  66.0046993  33.2842753   7.9831673
  65.4506993  32.8552753   8.3341673  65.4726993  29.6832753   7.8921673
  64.6756993  29.9072753   8.1661673  65.7306993  29.0892753   8.4771673
  65.3926993  29.6282753   8.0191673  59.3646993  34.4952753   2.3401673
  59.2176993  33.7192753   2.7111673  60.0536993  34.3482753   1.8251673
  59.4446993  34.3582753   2.3191673  64.9236993  33.0302753  17.0151673
  65.0876993  33.3132753  17.8241673  65.1866993  33.6912753  16.5101673
  64.9866993  33.1702753  17.0601673  64.4636993  27.4872753  12.3381673
  64.3086993  28.0972753  12.9421673  64.9976993  26.9292753  12.7441673
  64.5196993  27.4952753  12.4871673  53.1546993  18.2062753   2.5391673
  53.2836993  17.4982753   2.0471673  52.7876993  17.8882753   3.2641673
  53.1196993  18.0542753   2.5741673  62.8476993  25.8872753   2.9961673
  62.9066993  26.5372753   3.5751673  62.6586993  25.1912753   3.4871673
  62.8286993  25.8802753   3.1541673  62.0706993  27.9342753   7.4271673
  61.2236993  27.7402753   7.5081673  62.3946993  27.7692753   8.2201673
  61.9926993  27.8812753   7.5561673  55.9186993  27.6272753   9.7431673
  56.6406993  28.1152753   9.7061673  55.6486993  27.5972753   8.9141673
  55.9856993  27.6952753   9.6151673  59.1486993  22.7982753   6.4781673
  59.9946993  22.6082753   6.5761673  58.7786993  22.0212753   6.3401673
  59.2186993  22.6552753   6.4721673  53.9696993  24.1362753   3.1331673
  54.4586993  23.8442753   3.7941673  54.0986993  23.5432753   2.5061673
  54.0606993  24.0052753   3.1381673  55.3136993  28.6792753  14.0211673
  54.8926993  28.1612753  13.4601673  54.9616993  29.4652753  13.8781673
  55.1996993  28.7192753  13.9171673  53.4296993  20.0012753   7.8651673
  53.4736993  20.3452753   7.0641673  54.1846993  20.2382753   8.2321673
  53.5476993  20.0872753   7.8011673  60.0526993  30.4902753  10.6391673
  59.7546993  31.0822753  11.2061673  60.1076993  30.9322753   9.8901673
  60.0166993  30.6432753  10.6121673  58.0316993  29.4402753  14.0371673
  57.2256993  29.1502753  14.2041673  57.9426993  30.3082753  14.0431673
  57.8996993  29.5252753  14.0621673  62.5686993  26.9132753  10.1301673
  63.0446993  27.2872753  10.7581673  61.7456993  27.0472753  10.3891673
  62.5176993  26.9882753  10.2611673  59.2786993  22.5162753  12.8711673
  59.4396993  21.7722753  13.2981673  59.2336993  22.2672753  12.0361673
  59.2956993  22.3692753  12.8111673  61.8326993  34.3062753   5.3581673
  62.3786993  34.9852753   5.4121673  61.4826993  34.3882753   4.5631673
  61.8616993  34.4192753   5.2481673  61.0306993  18.3242753  12.7511673
  61.7356993  18.6442753  12.3491673  61.2716993  17.5172753  12.9781673
  61.1696993  18.2522753  12.7251673  60.0156993  32.5342753   8.7471673
  59.3916993  33.1162753   8.5651673  60.2636993  32.2482753   7.9611673
  59.9596993  32.5782753   8.6041673  64.3246993  29.1682753  15.7361673
  65.0816993  29.4542753  15.4101673  63.7776993  29.2202753  15.0581673
  64.3556993  29.2182753  15.5871673  57.5396993  23.3772753   8.8121673
  57.9796993  23.2742753   8.0661673  58.0846993  23.0642753   9.4171673
  57.6846993  23.3162753   8.7911673  65.5556993  22.4792753  14.4041673
  64.9076993  22.9492753  14.7521673  66.1206993  22.3902753  15.0631673
  65.5436993  22.5352753  14.5531673  65.2436993  24.0162753  10.7021673
  65.5456993  24.4362753  11.4051673  65.2796993  23.1762753  10.9341673
  65.2936993  23.9542753  10.8401673  62.6686993  34.1832753  14.6271673
  63.1466993  33.5832753  14.2111673  62.3176993  33.7402753  15.2921673
  62.6876993  34.0292753  14.6641673  61.0866993  18.3622753   8.8591673
  60.2606993  18.2132753   9.0961673  61.0466993  18.3972753   7.9881673
  60.9586993  18.3452753   8.7651673  62.7276993  29.4022753  13.6471673
  61.9326993  29.3382753  13.9981673  62.7986993  30.2492753  13.4521673
  62.6206993  29.5172753  13.6701673  53.6516993  18.7602753  14.8941673
  53.5116993  19.5552753  14.5631673  52.8656993  18.5172753  15.1831673
  53.5146993  18.8422753  14.8881673  58.5576993  35.6092753   8.9641673
  58.5686993  35.6682753   9.8341673  58.1326993  34.8622753   8.8141673
  58.4966993  35.5072753   9.0701673  65.4726993  28.6572753   5.1631673
  65.5486993  28.9982753   5.9621673  65.6416993  27.8102753   5.2841673
  65.5086993  28.5822753   5.2991673  62.9946993  27.9312753   4.7281673
  62.6966993  27.6162753   5.4851673  63.6896993  28.4042753   4.9631673
  63.0536993  27.9542753   4.8751673  63.2166993  32.0492753  12.7551673
  63.9036993  31.9352753  13.2801673  63.3506993  32.8402753  12.4111673
  63.3376993  32.1492753  12.7821673  55.3216993  35.1072753  14.4061673
  54.6676993  34.5382753  14.5041673  54.9466993  35.8802753  14.5571673
  55.1696993  35.1372753  14.4431673  63.8396993  26.5132753  16.3291673
  64.1626993  27.1992753  15.8971673  63.1356993  26.8362753  16.7311673
  63.7826993  26.6622753  16.3241673  63.6246993  29.9772753  10.1881673
  62.9306993  30.3792753  10.5311673  64.3016993  30.4102753  10.5271673
  63.6216993  30.1002753  10.2891673  56.6926993  23.5152753  12.5351673
  57.0676993  24.1342753  12.0481673  57.3666993  23.0412753  12.8201673
  56.8476993  23.5372753  12.5051673  54.4676993  21.9632753  11.8101673
  54.5446993  21.7942753  10.9571673  55.2136993  22.3692753  12.0071673
  54.5886993  21.9982753  11.7131673  57.0216993  19.3732753  14.2211673
  56.9406993  18.5292753  14.4271673  56.7076993  19.4172753  13.4081673
  56.9636993  19.2552753  14.1311673  63.9466993  31.5682753   3.3571673
  63.7416993  32.4012753   3.1981673  63.1716993  31.1862753   3.4791673
  63.8016993  31.6352753   3.3521673  53.8646993  27.1892753  12.0341673
  54.1846993  27.4082753  11.2531673  53.7646993  26.3242753  11.9791673
  53.8966993  27.0942753  11.9111673  65.0076993  19.5492753  15.3881673
  65.0996993  20.2612753  15.8821673  64.3706993  19.1042753  15.7851673
  64.9266993  19.5882753  15.5201673  64.0016993  19.7392753   6.2421673
  63.3016993  20.2572753   6.1861673  64.0396993  19.3592753   5.4581673
  63.9036993  19.7602753   6.1181673  58.6276993  26.4812753  13.4191673
  58.2316993  27.2552753  13.4941673  58.2216993  26.1082753  12.7431673
  58.5096993  26.5402753  13.3301673  59.0566993  19.4582753  10.8691673
  58.1926993  19.5422753  10.9491673  59.2766993  18.9442753  11.5381673
  58.9616993  19.3952753  10.9801673  63.1596993  20.2062753   9.2431673
  62.4226993  19.7522753   9.3561673  63.7306993  19.8042753   9.7661673
  63.1346993  20.0792753   9.3371673  65.8916993  31.0542753  11.0311673
  66.0976993  31.3552753  11.8231673  65.8306993  31.7762753  10.5461673
  65.9126993  31.2052753  11.0761673  65.4256993  35.2682753  15.2771673
  64.6726993  35.2502753  14.8361673  65.5936993  36.1202753  15.3611673
  65.3396993  35.3912753  15.2241673  60.6626993  24.5352753  14.4471673
  60.3406993  23.9592753  13.8771673  60.3036993  25.2902753  14.2011673
  60.5626993  24.5612753  14.3271673  59.0976993  34.8912753  14.6951673
  59.1386993  35.0172753  15.5581673  59.7486993  34.3312753  14.5391673
  59.1996993  34.8272753  14.8001673  56.2766993  19.5412753  11.5171673
  55.9336993  18.7742753  11.2831673  55.5816993  20.0652753  11.5811673
  56.1236993  19.5052753  11.4921673  65.3226993  18.3972753   8.4941673
  65.9926993  18.9412753   8.6211673  64.8196993  18.8212753   7.9211673
  65.3476993  18.5402753   8.4281673  56.6906993  33.2742753  16.0551673
  57.2856993  33.7052753  16.5271673  56.3266993  33.8982753  15.5661673
  56.7246993  33.4302753  16.0521673  64.6816993  24.2052753   5.9871673
  65.2326993  23.5982753   6.2871673  64.2566993  24.4682753   6.7021673
  64.7006993  24.1542753   6.1361673  54.9296993  22.8552753   5.4731673
  54.5616993  23.1572753   6.2041673  55.4636993  22.2262753   5.7571673
  54.9536993  22.8072753   5.6231673  54.6176993  31.2632753  12.9841673
  54.0436993  31.6792753  13.4931673  55.3506993  31.7282753  13.0791673
  54.6416993  31.3932753  13.0731673  59.7096993  19.9022753  14.6031673
  59.9436993  19.3262753  13.9901673  58.8676993  19.7212753  14.7441673
  59.6196993  19.7902753  14.5331673  57.0906993  33.3452753   8.2361673
  57.0116993  32.5352753   7.9201673  56.6466993  33.8322753   7.6641673
  57.0136993  33.2972753   8.1051673  54.6626993  35.5892753  11.8171673
  55.1556993  35.5332753  12.5351673  54.8506993  34.8562753  11.3821673
  54.7636993  35.4722753  11.8591673  63.9096993   6.5431673  84.6601313
  63.3856993   7.1391673  85.0231313  64.3066993   6.1751673  85.3441313
  63.8906993   6.5771673  84.8151313  53.7786993  10.6831673  80.1161313
  53.3376993  10.8011673  80.8591313  53.4956993   9.9081673  79.8311313
  53.6716993  10.5861673  80.1841313  53.5216993   4.4751673  76.6231313
  52.7436993   4.6371673  76.2631313  53.5606993   3.6041673  76.6451313
  53.4126993   4.3701673  76.5731313  56.6606993   9.7381673  75.2951313
  56.2686993   9.3671673  74.6091313  56.5806993   9.1401673  75.9241313
  56.5906993   9.5951673  75.2861313  56.2876993  11.3791673  79.1951313
  56.8956993  11.2091673  79.7981313  55.5366993  11.2391673  79.6161313
  56.2666993  11.3331673  79.3461313  55.1786993  14.4701673  75.2721313
  55.6456993  14.5541673  74.5401313  55.6336993  13.8921673  75.7411313
  55.3146993  14.3971673  75.2331313  53.7186993  13.4181673  86.3711313
  53.8476993  13.1381673  87.1871313  53.1086993  12.8771673  86.0621313
  53.6476993  13.2971673  86.4461313  55.1646993   7.9391673  80.5731313
  54.7026993   7.5471673  79.9461313  55.8646993   7.4261673  80.6651313
  55.1996993   7.8061673  80.4941313  59.6726993   3.5491673  85.9201313
  60.3506993   3.5671673  85.3711313  59.6276993   2.7131673  86.1651313
  59.7656993   3.4281673  85.8751313  60.2746993  14.1351673  88.7011313
  60.4126993  14.8951673  88.2941313  61.0656993  13.7701673  88.7281313
  60.4116993  14.1941673  88.6451313  57.1656993   6.0391673  80.5961313
  57.9826993   5.8521673  80.8391313  56.6886993   5.4251673  80.9921313
  57.2156993   5.9211673  80.6911313  61.3696993  12.0201673  83.2061313
  61.7176993  11.2211673  83.2361313  62.0346993  12.5241673  82.9511313
  61.5196993  11.9761673  83.1731313  61.4266993  11.4691673  79.4171313
  61.7576993  10.8251673  79.9031313  61.6666993  11.2581673  78.6061313
  61.5106993  11.3431673  79.3691313  65.4146993   3.2011673  74.3841313
  64.9646993   3.8821673  74.6911313  65.5286993   2.6971673  75.0871313
  65.3656993   3.2271673  74.5331313  53.6206993   5.7001673  83.5861313
  53.3646993   6.5311673  83.5111313  52.9566993   5.3171673  84.0031313
  53.4846993   5.7661673  83.6371313  53.5306993  15.4101673  81.4861313
  52.9386993  15.9681673  81.1731313  53.9566993  15.1411673  80.7741313
  53.5066993  15.4521673  81.3351313  59.3706993  13.2541673  78.9661313
  58.7916993  12.9791673  79.5581313  59.9946993  12.6451673  78.9911313
  59.3776993  13.1241673  79.0571313  65.5136993  15.5421673  76.4881313
  66.2406993  16.0141673  76.5901313  65.7426993  14.7481673  76.7681313
  65.6556993  15.4951673  76.5451313  63.6816993  15.9341673  78.4781313
  63.8956993  16.4611673  79.1401313  64.4486993  15.7601673  78.0991313
  63.8266993  15.9861673  78.5201313  55.0756993  14.0801673  79.4171313
  55.7316993  13.5051673  79.4321313  55.4646993  14.8291673  79.1961313
  55.2306993  14.1051673  79.3871313  55.8936993  12.5671673  82.9171313
  56.3166993  12.2111673  82.2431313  56.2176993  12.1451673  83.6091313
  56.0036993  12.4521673  82.9201313  59.1246993  15.4191673  82.2131313
  59.9686993  15.5231673  82.0181313  58.8276993  16.2371673  82.2811313
  59.2056993  15.5551673  82.1941313  62.9316993   4.8161673  80.3001313
  63.2186993   4.5841673  79.5101313  63.6636993   4.8951673  80.7691313
  63.0816993   4.7931673  80.2531313  63.6536993   5.1551673  75.4211313
  63.9346993   5.9431673  75.6701313  62.8776993   5.3201673  75.0581313
  63.5806993   5.2961673  75.4041313  58.1226993  16.6381673  87.9531313
  58.4146993  16.5711673  88.7731313  57.4966993  16.0331673  87.9081313
  58.0736993  16.5391673  88.0681313  62.5126993  13.3261673  75.2371313
  62.3316993  13.8711673  75.8941313  63.2786993  13.6161673  74.9361313
  62.5986993  13.4501673  75.2901313  56.1156993  14.8001673  87.0751313
  55.4176993  14.2921673  87.2011313  56.3756993  14.5951673  86.2671313
  56.0506993  14.6951673  86.9741313  63.2776993   3.5981673  77.6051313
  62.7696993   2.9361673  77.3511313  63.3296993   4.1021673  76.8951313
  63.2106993   3.5751673  77.4631313  63.8266993  16.2931673  87.9851313
  64.5946993  16.2131673  87.5791313  63.2436993  16.1721673  87.3471313
  63.8536993  16.2631673  87.8311313  61.8756993   2.9061673  82.0181313
  61.9496993   3.4741673  81.3601313  61.9966993   3.3981673  82.7281313
  61.9036993   3.0631673  82.0261313  59.4396993   9.1621673  84.3911313
  59.6116993   8.9521673  85.2201313  58.7846993   8.6281673  84.1751313
  59.3686993   9.0521673  84.4821313  65.6676993   3.0761673  87.9061313
  65.5726993   3.3951673  88.7121313  65.0746993   2.4371673  87.8681313
  65.5656993   3.0281673  88.0201313  60.1896993   9.1001673  86.9811313
  60.2426993   9.9471673  87.1831313  59.9046993   8.7301673  87.7181313
  60.1556993   9.1701673  87.1191313  66.3666993   9.7951673  86.1111313
  65.8526993   9.3831673  86.6821313  66.2406993  10.6391673  86.2921313
  66.2726993   9.8591673  86.2221313  56.9316993   2.5391673  82.0201313
  57.2036993   2.1091673  81.3121313  56.7556993   1.9031673  82.5911313
  56.9456993   2.3821673  82.0001313  56.7556993   9.9661673  81.5691313
  57.6066993   9.8861673  81.3961313  56.3986993   9.2841673  81.1571313
  56.8286993   9.8531673  81.4821313  55.5226993  16.6911673  82.8061313
  54.8496993  16.1931673  82.5611313  55.9256993  16.8761673  82.0551313
  55.4826993  16.6451673  82.6591313  55.0726993   3.6411673  85.1021313
  55.9156993   3.8611673  85.0591313  54.6836993   4.2141673  84.5711313
  55.1396993   3.7581673  85.0171313  59.1236993   9.9731673  79.8041313
  59.8366993  10.4681673  79.8941313  59.3456993   9.4061673  79.1781313
  59.2616993   9.9621673  79.7251313  53.2796993  11.6161673  83.1241313
  52.6126993  12.1041673  83.4001313  53.9596993  12.1611673  83.1531313
  53.2816993  11.7681673  83.1691313  53.3456993   8.3001673  78.2271313
  53.1606993   7.4611673  78.3791313  54.0046993   8.2641673  77.6571313
  53.4156993   8.1711673  78.1651313  63.6466993  13.6761673  82.1311313
  63.1236993  14.3101673  81.8381313  63.9566993  13.3121673  81.4021313
  63.6146993  13.7161673  81.9801313  53.5176993  12.4641673  77.8021313
  54.0696993  13.0331673  78.1661313  53.2856993  11.9491673  78.4671313
  53.5646993  12.4721673  77.9541313  57.7216993  11.4641673  84.8911313
  58.1886993  11.7531673  85.5691313  58.2936993  10.9861673  84.4371313
  57.8756993  11.4361673  84.9241313  53.3476993  10.9131673  75.4301313
  54.1036993  10.4811673  75.4881313  53.3626993  11.4451673  76.1211313
  53.4616993  10.9281673  75.5411313  54.2876993   9.1341673  83.4351313
  54.7186993   9.0051673  82.6881313  54.0826993   9.9821673  83.4091313
  54.3206993   9.2401673  83.3211313  60.6336993   2.6981673  77.0851313
  60.6316993   2.5811673  76.2201313  60.4526993   3.5461673  77.1771313
  60.6066993   2.8061673  76.9711313  58.3716993  12.6501673  81.7171313
  58.4976993  13.4931673  81.9041313  59.0396993  12.2511673  82.1131313
  58.4896993  12.7161673  81.8031313  56.9866993   5.5301673  76.7191313
  56.8586993   5.0821673  77.4571313  56.4046993   5.1881673  76.1671313
  56.8816993   5.4131673  76.7471313  57.1536993   7.3601673  83.3181313
  56.3726993   7.3011673  82.9351313  57.2256993   6.6081673  83.7551313
  57.0486993   7.2411673  83.3261313  57.5836993   7.0971673  86.7861313
  57.6086993   6.4221673  86.2351313  56.9376993   7.5931673  86.4741313
  57.4926993   7.0701673  86.6591313  61.6836993  15.8741673  86.1781313
  61.4066993  15.2331673  85.6551313  61.4756993  16.6001673  85.7401313
  61.6126993  15.8871673  86.0361313  65.6716993   2.7791673  78.6931313
  66.1616993   3.4961673  78.6161313  64.8816993   3.0401673  78.4301313
  65.6276993   2.9231673  78.6431313  62.2536993   4.2491673  84.4181313
  62.7336993   4.9481673  84.6261313  62.6266993   3.6021673  84.8691313
  62.3796993   4.2571673  84.5151313  64.4426993   7.4181673  76.6921313
  64.4346993   8.1401673  76.2021313  63.8036993   7.5531673  77.2691313
  64.3476993   7.5451673  76.7051313  65.4596993  14.3541673  84.5171313
  64.8566993  14.0581673  83.9601313  66.0046993  14.8061673  84.0081313
  65.4506993  14.3771673  84.3591313  65.4726993  11.2051673  83.9171313
  64.6756993  11.4291673  84.1911313  65.7306993  10.6111673  84.5021313
  65.3926993  11.1501673  84.0441313  59.3646993  16.0171673  78.3651313
  59.2176993  15.2411673  78.7361313  60.0536993  15.8701673  77.8501313
  59.4446993  15.8801673  78.3441313  61.6566993  15.5331673  76.7671313
  62.2786993  15.6961673  77.3571313  61.6926993  16.2241673  76.2351313
  61.7536993  15.6591673  76.7761313  56.1576993   8.0671673  77.5961313
  56.4816993   7.2881673  77.3741313  56.8036993   8.4351673  78.0511313
  56.3006993   8.0061673  77.6301313  64.4636993   9.0091673  88.3631313
  64.3086993   9.6191673  88.9671313  64.9976993   8.4511673  88.7691313
  64.5196993   9.0171673  88.5121313  62.8476993   7.4091673  79.0211313
  62.9066993   8.0591673  79.6001313  62.6586993   6.7131673  79.5121313
  62.8286993   7.4021673  79.1791313  57.3436993   1.9261673  75.5331313
  56.8326993   1.9791673  74.8271313  58.1276993   2.1661673  75.2371313
  57.3836993   1.9691673  75.3851313  62.0706993   9.4561673  83.4521313
  61.2236993   9.2621673  83.5331313  62.3946993   9.2911673  84.2451313
  61.9926993   9.4031673  83.5811313  58.8226993  16.1861673  74.3381313
  59.2616993  15.4891673  74.6261313  59.0296993  16.8101673  74.9111313
  58.9186993  16.1751673  74.4651313  55.9186993   9.1491673  85.7681313
  56.6406993   9.6371673  85.7311313  55.6486993   9.1191673  84.9391313
  55.9856993   9.2171673  85.6401313  59.1486993   4.3201673  82.5031313
  59.9946993   4.1301673  82.6011313  58.7786993   3.5431673  82.3651313
  59.2186993   4.1771673  82.4971313  53.9696993   5.6581673  79.1581313
  54.4586993   5.3661673  79.8191313  54.0986993   5.0651673  78.5311313
  54.0606993   5.5271673  79.1631313  58.4946993   7.0921673  74.6441313
  57.8846993   6.6871673  75.1181313  58.1086993   7.2101673  73.8711313
  58.3476993   7.0491673  74.6001313  55.3136993  10.2011673  90.0461313
  54.8926993   9.6831673  89.4851313  54.9616993  10.9871673  89.9031313
  55.1996993  10.2411673  89.9421313  59.9496993   5.5531673  77.3541313
  60.2216993   6.3791673  77.4211313  59.0866993   5.6281673  77.2581313
  59.8626993   5.6861673  77.3491313  65.3706993  10.8621673  75.3601313
  66.0546993  10.3481673  75.1911313  64.9536993  10.9081673  74.5951313
  65.4096993  10.7931673  75.2221313  60.0526993  12.0121673  86.6641313
  59.7546993  12.6041673  87.2311313  60.1076993  12.4541673  85.9151313
  60.0166993  12.1651673  86.6371313  62.5686993   8.4351673  86.1551313
  63.0446993   8.8091673  86.7831313  61.7456993   8.5691673  86.4141313
  62.5176993   8.5101673  86.2861313  59.2786993   4.0381673  88.8961313
  59.4396993   3.2941673  89.3231313  59.2336993   3.7891673  88.0611313
  59.2956993   3.8911673  88.8361313  61.8326993  15.8281673  81.3831313
  62.3786993  16.5071673  81.4371313  61.4826993  15.9101673  80.5881313
  61.8616993  15.9411673  81.2731313  60.0156993  14.0561673  84.7721313
  59.3916993  14.6381673  84.5901313  60.2636993  13.7701673  83.9861313
  59.9596993  14.1001673  84.6291313  61.6096993   8.8321673  74.6871313
  60.8046993   8.6551673  74.4021313  61.5766993   9.6831673  74.8791313
  61.4856993   8.9311673  74.6741313  57.5396993   4.8991673  84.8371313
  57.9796993   4.7961673  84.0911313  58.0846993   4.5861673  85.4421313
  57.6846993   4.8381673  84.8161313  65.2436993   5.5381673  86.7271313
  65.5456993   5.9581673  87.4301313  65.2796993   4.6981673  86.9591313
  65.2936993   5.4761673  86.8651313  62.7276993  10.9241673  89.6721313
  61.9326993  10.8601673  90.0231313  62.7986993  11.7711673  89.4771313
  62.6206993  11.0391673  89.6951313  58.5576993  17.1311673  84.9891313
  58.5686993  17.1901673  85.8591313  58.1326993  16.3841673  84.8391313
  58.4966993  17.0291673  85.0951313  56.7156993   3.0261673  78.1441313
  56.8416993   2.6971673  77.3461313  55.9036993   2.7771673  78.3431313
  56.6146993   2.9411673  78.0561313  65.4726993  10.1791673  81.1881313
  65.5486993  10.5201673  81.9871313  65.6416993   9.3321673  81.3091313
  65.5086993  10.1041673  81.3241313  62.9946993   9.4531673  80.7531313
  62.6966993   9.1381673  81.5101313  63.6896993   9.9261673  80.9881313
  63.0536993   9.4761673  80.9001313  63.2166993  13.5711673  88.7801313
  63.9036993  13.4571673  89.3051313  63.3506993  14.3621673  88.4361313
  63.3376993  13.6711673  88.8071313  63.6246993  11.4991673  86.2131313
  62.9306993  11.9011673  86.5561313  64.3016993  11.9321673  86.5521313
  63.6216993  11.6221673  86.3141313  56.6926993   5.0371673  88.5601313
  57.0676993   5.6561673  88.0731313  57.3666993   4.5631673  88.8451313
  56.8476993   5.0591673  88.5301313  54.4676993   3.4851673  87.8351313
  54.5446993   3.3161673  86.9821313  55.2136993   3.8911673  88.0321313
  54.5886993   3.5201673  87.7381313  63.9466993  13.0901673  79.3821313
  63.7416993  13.9231673  79.2231313  63.1716993  12.7081673  79.5041313
  63.8016993  13.1571673  79.3771313  53.8646993   8.7111673  88.0591313
  54.1846993   8.9301673  87.2781313  53.7646993   7.8461673  88.0041313
  53.8966993   8.6161673  87.9361313  55.3206993   4.6471673  74.6771313
  54.6486993   4.6611673  75.2331313  55.4156993   3.7991673  74.4931313
  55.2356993   4.5241673  74.7321313  59.3086993  13.3521673  75.7911313
  59.7496993  13.4321673  76.5391313  58.5036993  13.1361673  76.0491313
  59.2546993  13.3321673  75.9401313  58.6276993   8.0031673  89.4441313
  58.2316993   8.7771673  89.5191313  58.2216993   7.6301673  88.7681313
  58.5096993   8.0621673  89.3551313  56.6376993  12.4221673  76.3921313
  56.3936993  12.1151673  77.1721313  56.6046993  11.7191673  75.8761313
  56.5966993  12.2731673  76.4311313  59.4566993  10.6671673  75.1351313
  58.6386993  10.3991673  75.2751313  59.4286993  11.5191673  75.3201313
  59.3316993  10.7541673  75.1831313  65.8916993  12.5761673  87.0561313
  66.0976993  12.8771673  87.8481313  65.8306993  13.2981673  86.5711313
  65.9126993  12.7271673  87.1011313  64.6816993   5.7271673  82.0121313
  65.2326993   5.1201673  82.3121313  64.2566993   5.9901673  82.7271313
  64.7006993   5.6761673  82.1611313  54.9296993   4.3771673  81.4981313
  54.5616993   4.6791673  82.2291313  55.4636993   3.7481673  81.7821313
  54.9536993   4.3291673  81.6481313  54.6176993  12.7851673  89.0091313
  54.0436993  13.2011673  89.5181313  55.3506993  13.2501673  89.1041313
  54.6416993  12.9151673  89.0981313  56.4036993  16.0521673  77.7841313
  56.2586993  16.2081673  76.9381313  57.2696993  16.1311673  77.8621313
  56.5106993  16.0871673  77.6711313  60.5706993   8.4491673  77.5121313
  60.6706993   8.5881673  76.6571313  61.3886993   8.3891673  77.8081313
  60.7056993   8.4601673  77.4291313  65.8056993  12.7781673  77.3141313
  65.5546993  12.6501673  78.1401313  65.4886993  12.0831673  76.8931313
  65.7216993  12.6571673  77.3741313  57.0906993  14.8671673  84.2611313
  57.0116993  14.0571673  83.9451313  56.6466993  15.3541673  83.6891313
  57.0136993  14.8191673  84.1301313  62.6916993  10.9861673  76.7441313
  63.4086993  10.6391673  76.3881313  62.6576993  11.7861673  76.3961313
  62.7926993  11.0531673  76.6401313  54.6626993  17.1111673  87.8421313
  55.1556993  17.0551673  88.5601313  54.8506993  16.3781673  87.4071313
  54.7636993  16.9941673  87.8841313  63.9096993   6.5431673  65.6538903
  63.3856993   7.1391673  66.0168903  64.3066993   6.1751673  66.3378903
  63.8906993   6.5771673  65.8088903  53.7786993  10.6831673  61.1098903
  53.3376993  10.8011673  61.8528903  53.4956993   9.9081673  60.8248903
  53.6716993  10.5861673  61.1778903  53.5216993   4.4751673  57.6168903
  52.7436993   4.6371673  57.2568903  53.5606993   3.6041673  57.6388903
  53.4126993   4.3701673  57.5668903  56.6606993   9.7381673  56.2888903
  56.2686993   9.3671673  55.6028903  56.5806993   9.1401673  56.9178903
  56.5906993   9.5951673  56.2798903  56.2876993  11.3791673  60.1888903
  56.8956993  11.2091673  60.7918903  55.5366993  11.2391673  60.6098903
  56.2666993  11.3331673  60.3398903  55.1786993  14.4701673  56.2658903
  55.6456993  14.5541673  55.5338903  55.6336993  13.8921673  56.7348903
  55.3146993  14.3971673  56.2268903  53.7186993  13.4181673  67.3648903
  53.8476993  13.1381673  68.1808903  53.1086993  12.8771673  67.0558903
  53.6476993  13.2971673  67.4398903  60.2926993  10.9431673  72.4318903
  60.0566993  10.9401673  73.2718903  59.5446993  10.7951673  72.0078903
  60.1466993  10.9201673  72.4928903  55.1646993   7.9391673  61.5668903
  54.7026993   7.5471673  60.9398903  55.8646993   7.4261673  61.6588903
  55.1996993   7.8061673  61.4878903  59.6726993   3.5491673  66.9138903
  60.3506993   3.5671673  66.3648903  59.6276993   2.7131673  67.1588903
  59.7656993   3.4281673  66.8688903  60.2746993  14.1351673  69.6948903
  60.4126993  14.8951673  69.2878903  61.0656993  13.7701673  69.7218903
  60.4116993  14.1941673  69.6388903  57.1656993   6.0391673  61.5898903
  57.9826993   5.8521673  61.8328903  56.6886993   5.4251673  61.9858903
  57.2156993   5.9211673  61.6848903  61.3696993  12.0201673  64.1998903
  61.7176993  11.2211673  64.2298903  62.0346993  12.5241673  63.9448903
  61.5196993  11.9761673  64.1668903  61.4266993  11.4691673  60.4108903
  61.7576993  10.8251673  60.8968903  61.6666993  11.2581673  59.5998903
  61.5106993  11.3431673  60.3628903  63.3946993   5.6001673  71.7498903
  62.5466993   5.5011673  71.5718903  63.4236993   6.3451673  72.2038903
  63.2736993   5.6961673  71.7908903  65.4146993   3.2011673  55.3778903
  64.9646993   3.8821673  55.6848903  65.5286993   2.6971673  56.0808903
  65.3656993   3.2271673  55.5268903  53.6206993   5.7001673  64.5798903
  53.3646993   6.5311673  64.5048903  52.9566993   5.3171673  64.9968903
  53.4846993   5.7661673  64.6308903  53.5306993  15.4101673  62.4798903
  52.9386993  15.9681673  62.1668903  53.9566993  15.1411673  61.7678903
  53.5066993  15.4521673  62.3288903  59.3706993  13.2541673  59.9598903
  58.7916993  12.9791673  60.5518903  59.9946993  12.6451673  59.9848903
  59.3776993  13.1241673  60.0508903  65.5136993  15.5421673  57.4818903
  66.2406993  16.0141673  57.5838903  65.7426993  14.7481673  57.7618903
  65.6556993  15.4951673  57.5388903  63.6816993  15.9341673  59.4718903
  63.8956993  16.4611673  60.1338903  64.4486993  15.7601673  59.0928903
  63.8266993  15.9861673  59.5138903  59.9556993   2.6501673  74.3688903
  60.0726993   2.1961673  73.6328903  60.2436993   3.4481673  74.1658903
  60.0156993   2.7011673  74.2298903  55.0756993  14.0801673  60.4108903
  55.7316993  13.5051673  60.4258903  55.4646993  14.8291673  60.1898903
  55.2306993  14.1051673  60.3808903  55.6886993   2.2471673  73.3528903
  54.9106993   1.8571673  73.2808903  56.1796993   1.8351673  72.7618903
  55.6456993   2.1281673  73.2548903  55.8936993  12.5671673  63.9108903
  56.3166993  12.2111673  63.2368903  56.2176993  12.1451673  64.6028903
  56.0036993  12.4521673  63.9138903  59.1246993  15.4191673  63.2068903
  59.9686993  15.5231673  63.0118903  58.8276993  16.2371673  63.2748903
  59.2056993  15.5551673  63.1878903  62.9316993   4.8161673  61.2938903
  63.2186993   4.5841673  60.5038903  63.6636993   4.8951673  61.7628903
  63.0816993   4.7931673  61.2468903  63.6536993   5.1551673  56.4148903
  63.9346993   5.9431673  56.6638903  62.8776993   5.3201673  56.0518903
  63.5806993   5.2961673  56.3978903  58.1226993  16.6381673  68.9468903
  58.4146993  16.5711673  69.7668903  57.4966993  16.0331673  68.9018903
  58.0736993  16.5391673  69.0618903  53.0366993   2.7951673  70.9388903
  53.0326993   3.3821673  71.5848903  53.6306993   3.1071673  70.3818903
  53.1236993   2.9281673  70.9518903  65.3746993  13.1291673  71.4808903
  65.3406993  13.5111673  72.2648903  66.2286993  13.0871673  71.3098903
  65.4956993  13.1791673  71.5718903  62.5126993  13.3261673  56.2308903
  62.3316993  13.8711673  56.8878903  63.2786993  13.6161673  55.9298903
  62.5986993  13.4501673  56.2838903  56.1156993  14.8001673  68.0688903
  55.4176993  14.2921673  68.1948903  56.3756993  14.5951673  67.2608903
  56.0506993  14.6951673  67.9678903  63.2776993   3.5981673  58.5988903
  62.7696993   2.9361673  58.3448903  63.3296993   4.1021673  57.8888903
  63.2106993   3.5751673  58.4568903  63.8266993  16.2931673  68.9788903
  64.5946993  16.2131673  68.5728903  63.2436993  16.1721673  68.3408903
  63.8536993  16.2631673  68.8248903  61.8756993   2.9061673  63.0118903
  61.9496993   3.4741673  62.3538903  61.9966993   3.3981673  63.7218903
  61.9036993   3.0631673  63.0198903  57.4766993  13.6511673  70.6358903
  58.3176993  13.7141673  70.4138903  57.4396993  14.0481673  71.4118903
  57.5956993  13.7191673  70.7178903  59.4396993   9.1621673  65.3848903
  59.6116993   8.9521673  66.2138903  58.7846993   8.6281673  65.1688903
  59.3686993   9.0521673  65.4758903  65.6676993   3.0761673  68.8998903
  65.5726993   3.3951673  69.7058903  65.0746993   2.4371673  68.8618903
  65.5656993   3.0281673  69.0138903  60.1896993   9.1001673  67.9748903
  60.2426993   9.9471673  68.1768903  59.9046993   8.7301673  68.7118903
  60.1556993   9.1701673  68.1128903  66.3666993   9.7951673  67.1048903
  65.8526993   9.3831673  67.6758903  66.2406993  10.6391673  67.2858903
  66.2726993   9.8591673  67.2158903  53.0106993  13.4711673  74.1858903
  53.7666993  13.8201673  74.4438903  53.1876993  12.6181673  74.1288903
  53.1486993  13.3961673  74.2158903  56.9316993   2.5391673  63.0138903
  57.2036993   2.1091673  62.3058903  56.7556993   1.9031673  63.5848903
  56.9456993   2.3821673  62.9938903  56.7556993   9.9661673  62.5628903
  57.6066993   9.8861673  62.3898903  56.3986993   9.2841673  62.1508903
  56.8286993   9.8531673  62.4758903  55.5226993  16.6911673  63.7998903
  54.8496993  16.1931673  63.5548903  55.9256993  16.8761673  63.0488903
  55.4826993  16.6451673  63.6528903  55.0726993   3.6411673  66.0958903
  55.9156993   3.8611673  66.0528903  54.6836993   4.2141673  65.5648903
  55.1396993   3.7581673  66.0108903  59.1236993   9.9731673  60.7978903
  59.8366993  10.4681673  60.8878903  59.3456993   9.4061673  60.1718903
  59.2616993   9.9621673  60.7188903  53.2796993  11.6161673  64.1178903
  52.6126993  12.1041673  64.3938903  53.9596993  12.1611673  64.1468903
  53.2816993  11.7681673  64.1628903  60.9266993   5.3261673  74.2138903
  60.4426993   5.9031673  74.6558903  60.8986993   5.6211673  73.3928903
  60.8506993   5.4551673  74.1578903  53.3456993   8.3001673  59.2208903
  53.1606993   7.4611673  59.3728903  54.0046993   8.2641673  58.6508903
  53.4156993   8.1711673  59.1588903  63.6466993  13.6761673  63.1248903
  63.1236993  14.3101673  62.8318903  63.9566993  13.3121673  62.3958903
  63.6146993  13.7161673  62.9738903  53.5176993  12.4641673  58.7958903
  54.0696993  13.0331673  59.1598903  53.2856993  11.9491673  59.4608903
  53.5646993  12.4721673  58.9478903  57.7216993  11.4641673  65.8848903
  58.1886993  11.7531673  66.5628903  58.2936993  10.9861673  65.4308903
  57.8756993  11.4361673  65.9178903  53.3476993  10.9131673  56.4238903
  54.1036993  10.4811673  56.4818903  53.3626993  11.4451673  57.1148903
  53.4616993  10.9281673  56.5348903  54.2876993   9.1341673  64.4288903
  54.7186993   9.0051673  63.6818903  54.0826993   9.9821673  64.4028903
  54.3206993   9.2401673  64.3148903  60.6336993   2.6981673  58.0788903
  60.6316993   2.5811673  57.2138903  60.4526993   3.5461673  58.1708903
  60.6066993   2.8061673  57.9648903  58.3716993  12.6501673  62.7108903
  58.4976993  13.4931673  62.8978903  59.0396993  12.2511673  63.1068903
  58.4896993  12.7161673  62.7968903  56.5016993   6.1331673  72.5728903
  55.9656993   5.6271673  73.0408903  56.5216993   5.7431673  71.7928903
  56.4246993   6.0001673  72.5268903  56.9866993   5.5301673  57.7128903
  56.8586993   5.0821673  58.4508903  56.4046993   5.1881673  57.1608903
  56.8816993   5.4131673  57.7408903  57.1536993   7.3601673  64.3118903
  56.3726993   7.3011673  63.9288903  57.2256993   6.6081673  64.7488903
  57.0486993   7.2411673  64.3198903  57.5836993   7.0971673  67.7798903
  57.6086993   6.4221673  67.2288903  56.9376993   7.5931673  67.4678903
  57.4926993   7.0701673  67.6528903  61.6836993  15.8741673  67.1718903
  61.4066993  15.2331673  66.6488903  61.4756993  16.6001673  66.7338903
  61.6126993  15.8871673  67.0298903  65.6716993   2.7791673  59.6868903
  66.1616993   3.4961673  59.6098903  64.8816993   3.0401673  59.4238903
  65.6276993   2.9231673  59.6368903  55.3826993   8.4521673  73.3388903
  55.3456993   8.9531673  72.6248903  55.7136993   7.7001673  73.0438903
  55.4256993   8.4141673  73.1898903  61.2816993  13.5021673  72.7738903
  61.6356993  13.3241673  73.5508903  60.8456993  12.7731673  72.5748903
  61.2696993  13.3681673  72.8598903  62.2536993   4.2491673  65.4118903
  62.7336993   4.9481673  65.6198903  62.6266993   3.6021673  65.8628903
  62.3796993   4.2571673  65.5088903  64.4426993   7.4181673  57.6858903
  64.4346993   8.1401673  57.1958903  63.8036993   7.5531673  58.2628903
  64.3476993   7.5451673  57.6988903  65.4596993  14.3541673  65.5108903
  64.8566993  14.0581673  64.9538903  66.0046993  14.8061673  65.0018903
  65.4506993  14.3771673  65.3528903  65.4726993  11.2051673  64.9108903
  64.6756993  11.4291673  65.1848903  65.7306993  10.6111673  65.4958903
  65.3926993  11.1501673  65.0378903  59.3646993  16.0171673  59.3588903
  59.2176993  15.2411673  59.7298903  60.0536993  15.8701673  58.8438903
  59.4446993  15.8801673  59.3378903  61.6566993  15.5331673  57.7608903
  62.2786993  15.6961673  58.3508903  61.6926993  16.2241673  57.2288903
  61.7536993  15.6591673  57.7698903  64.9236993  14.5521673  74.0338903
  65.0876993  14.8351673  74.8428903  65.1866993  15.2131673  73.5288903
  64.9866993  14.6921673  74.0788903  56.1576993   8.0671673  58.5898903
  56.4816993   7.2881673  58.3678903  56.8036993   8.4351673  59.0448903
  56.3006993   8.0061673  58.6238903  64.4636993   9.0091673  69.3568903
  64.3086993   9.6191673  69.9608903  64.9976993   8.4511673  69.7628903
  64.5196993   9.0171673  69.5058903  62.8476993   7.4091673  60.0148903
  62.9066993   8.0591673  60.5938903  62.6586993   6.7131673  60.5058903
  62.8286993   7.4021673  60.1728903  57.3436993   1.9261673  56.5268903
  56.8326993   1.9791673  55.8208903  58.1276993   2.1661673  56.2308903
  57.3836993   1.9691673  56.3788903  62.0706993   9.4561673  64.4458903
  61.2236993   9.2621673  64.5268903  62.3946993   9.2911673  65.2388903
  61.9926993   9.4031673  64.5748903  58.8226993  16.1861673  55.3318903
  59.2616993  15.4891673  55.6198903  59.0296993  16.8101673  55.9048903
  58.9186993  16.1751673  55.4588903  55.9186993   9.1491673  66.7618903
  56.6406993   9.6371673  66.7248903  55.6486993   9.1191673  65.9328903
  55.9856993   9.2171673  66.6338903  59.1486993   4.3201673  63.4968903
  59.9946993   4.1301673  63.5948903  58.7786993   3.5431673  63.3588903
  59.2186993   4.1771673  63.4908903  53.9696993   5.6581673  60.1518903
  54.4586993   5.3661673  60.8128903  54.0986993   5.0651673  59.5248903
  54.0606993   5.5271673  60.1568903  58.4946993   7.0921673  55.6378903
  57.8846993   6.6871673  56.1118903  58.1086993   7.2101673  54.8648903
  58.3476993   7.0491673  55.5938903  55.3136993  10.2011673  71.0398903
  54.8926993   9.6831673  70.4788903  54.9616993  10.9871673  70.8968903
  55.1996993  10.2411673  70.9358903  59.9496993   5.5531673  58.3478903
  60.2216993   6.3791673  58.4148903  59.0866993   5.6281673  58.2518903
  59.8626993   5.6861673  58.3428903  65.3706993  10.8621673  56.3538903
  66.0546993  10.3481673  56.1848903  64.9536993  10.9081673  55.5888903
  65.4096993  10.7931673  56.2158903  60.0526993  12.0121673  67.6578903
  59.7546993  12.6041673  68.2248903  60.1076993  12.4541673  66.9088903
  60.0166993  12.1651673  67.6308903  58.0316993  10.9621673  71.0558903
  57.2256993  10.6721673  71.2228903  57.9426993  11.8301673  71.0618903
  57.8996993  11.0471673  71.0808903  62.5686993   8.4351673  67.1488903
  63.0446993   8.8091673  67.7768903  61.7456993   8.5691673  67.4078903
  62.5176993   8.5101673  67.2798903  59.2786993   4.0381673  69.8898903
  59.4396993   3.2941673  70.3168903  59.2336993   3.7891673  69.0548903
  59.2956993   3.8911673  69.8298903  61.8326993  15.8281673  62.3768903
  62.3786993  16.5071673  62.4308903  61.4826993  15.9101673  61.5818903
  61.8616993  15.9411673  62.2668903  60.0156993  14.0561673  65.7658903
  59.3916993  14.6381673  65.5838903  60.2636993  13.7701673  64.9798903
  59.9596993  14.1001673  65.6228903  64.3246993  10.6901673  72.7548903
  65.0816993  10.9761673  72.4288903  63.7776993  10.7421673  72.0768903
  64.3556993  10.7401673  72.6058903  61.6096993   8.8321673  55.6808903
  60.8046993   8.6551673  55.3958903  61.5766993   9.6831673  55.8728903
  61.4856993   8.9311673  55.6678903  57.5396993   4.8991673  65.8308903
  57.9796993   4.7961673  65.0848903  58.0846993   4.5861673  66.4358903
  57.6846993   4.8381673  65.8098903  65.5556993   4.0011673  71.4228903
  64.9076993   4.4711673  71.7708903  66.1206993   3.9121673  72.0818903
  65.5436993   4.0571673  71.5718903  65.2436993   5.5381673  67.7208903
  65.5456993   5.9581673  68.4238903  65.2796993   4.6981673  67.9528903
  65.2936993   5.4761673  67.8588903  62.6686993  15.7051673  71.6458903
  63.1466993  15.1051673  71.2298903  62.3176993  15.2621673  72.3108903
  62.6876993  15.5511673  71.6828903  62.7276993  10.9241673  70.6658903
  61.9326993  10.8601673  71.0168903  62.7986993  11.7711673  70.4708903
  62.6206993  11.0391673  70.6888903  58.5576993  17.1311673  65.9828903
  58.5686993  17.1901673  66.8528903  58.1326993  16.3841673  65.8328903
  58.4966993  17.0291673  66.0888903  56.7156993   3.0261673  59.1378903
  56.8416993   2.6971673  58.3398903  55.9036993   2.7771673  59.3368903
  56.6146993   2.9411673  59.0498903  65.4726993  10.1791673  62.1818903
  65.5486993  10.5201673  62.9808903  65.6416993   9.3321673  62.3028903
  65.5086993  10.1041673  62.3178903  62.9946993   9.4531673  61.7468903
  62.6966993   9.1381673  62.5038903  63.6896993   9.9261673  61.9818903
  63.0536993   9.4761673  61.8938903  63.2166993  13.5711673  69.7738903
  63.9036993  13.4571673  70.2988903  63.3506993  14.3621673  69.4298903
  63.3376993  13.6711673  69.8008903  55.3216993  16.6291673  71.4248903
  54.6676993  16.0601673  71.5228903  54.9466993  17.4021673  71.5758903
  55.1696993  16.6591673  71.4618903  63.8396993   8.0351673  73.3478903
  64.1626993   8.7211673  72.9158903  63.1356993   8.3581673  73.7498903
  63.7826993   8.1841673  73.3428903  63.6246993  11.4991673  67.2068903
  62.9306993  11.9011673  67.5498903  64.3016993  11.9321673  67.5458903
  63.6216993  11.6221673  67.3078903  56.6926993   5.0371673  69.5538903
  57.0676993   5.6561673  69.0668903  57.3666993   4.5631673  69.8388903
  56.8476993   5.0591673  69.5238903  54.4676993   3.4851673  68.8288903
  54.5446993   3.3161673  67.9758903  55.2136993   3.8911673  69.0258903
  54.5886993   3.5201673  68.7318903  63.9466993  13.0901673  60.3758903
  63.7416993  13.9231673  60.2168903  63.1716993  12.7081673  60.4978903
  63.8016993  13.1571673  60.3708903  53.8646993   8.7111673  69.0528903
  54.1846993   8.9301673  68.2718903  53.7646993   7.8461673  68.9978903
  53.8966993   8.6161673  68.9298903  55.3206993   4.6471673  55.6708903
  54.6486993   4.6611673  56.2268903  55.4156993   3.7991673  55.4868903
  55.2356993   4.5241673  55.7258903  59.3086993  13.3521673  56.7848903
  59.7496993  13.4321673  57.5328903  58.5036993  13.1361673  57.0428903
  59.2546993  13.3321673  56.9338903  58.6276993   8.0031673  70.4378903
  58.2316993   8.7771673  70.5128903  58.2216993   7.6301673  69.7618903
  58.5096993   8.0621673  70.3488903  56.6376993  12.4221673  57.3858903
  56.3936993  12.1151673  58.1658903  56.6046993  11.7191673  56.8698903
  56.5966993  12.2731673  57.4248903  59.4566993  10.6671673  56.1288903
  58.6386993  10.3991673  56.2688903  59.4286993  11.5191673  56.3138903
  59.3316993  10.7541673  56.1768903  65.8916993  12.5761673  68.0498903
  66.0976993  12.8771673  68.8418903  65.8306993  13.2981673  67.5648903
  65.9126993  12.7271673  68.0948903  65.4256993  16.7901673  72.2958903
  64.6726993  16.7721673  71.8548903  65.5936993  17.6421673  72.3798903
  65.3396993  16.9131673  72.2428903  60.6626993   6.0571673  71.4658903
  60.3406993   5.4811673  70.8958903  60.3036993   6.8121673  71.2198903
  60.5626993   6.0831673  71.3458903  59.0976993  16.4131673  71.7138903
  59.1386993  16.5391673  72.5768903  59.7486993  15.8531673  71.5578903
  59.1996993  16.3491673  71.8188903  56.6906993  14.7961673  73.0738903
  57.2856993  15.2271673  73.5458903  56.3266993  15.4201673  72.5848903
  56.7246993  14.9521673  73.0708903  64.6816993   5.7271673  63.0058903
  65.2326993   5.1201673  63.3058903  64.2566993   5.9901673  63.7208903
  64.7006993   5.6761673  63.1548903  54.9296993   4.3771673  62.4918903
  54.5616993   4.6791673  63.2228903  55.4636993   3.7481673  62.7758903
  54.9536993   4.3291673  62.6418903  54.6176993  12.7851673  70.0028903
  54.0436993  13.2011673  70.5118903  55.3506993  13.2501673  70.0978903
  54.6416993  12.9151673  70.0918903  56.4036993  16.0521673  58.7778903
  56.2586993  16.2081673  57.9318903  57.2696993  16.1311673  58.8558903
  56.5106993  16.0871673  58.6648903  60.5706993   8.4491673  58.5058903
  60.6706993   8.5881673  57.6508903  61.3886993   8.3891673  58.8018903
  60.7056993   8.4601673  58.4228903  65.8056993  12.7781673  58.3078903
  65.5546993  12.6501673  59.1338903  65.4886993  12.0831673  57.8868903
  65.7216993  12.6571673  58.3678903  57.0906993  14.8671673  65.2548903
  57.0116993  14.0571673  64.9388903  56.6466993  15.3541673  64.6828903
  57.0136993  14.8191673  65.1238903  62.6916993  10.9861673  57.7378903
  63.4086993  10.6391673  57.3818903  62.6576993  11.7861673  57.3898903
  62.7926993  11.0531673  57.6338903  54.6626993  17.1111673  68.8358903
  55.1556993  17.0551673  69.5538903  54.8506993  16.3781673  68.4008903
  54.7636993  16.9941673  68.8778903  63.9096993   6.5431673  46.6476493
  63.3856993   7.1391673  47.0106493  64.3066993   6.1751673  47.3316493
  63.8906993   6.5771673  46.8026493  53.7786993  10.6831673  42.1036493
  53.3376993  10.8011673  42.8466493  53.4956993   9.9081673  41.8186493
  53.6716993  10.5861673  42.1716493  53.5216993   4.4751673  38.6106493
  52.7436993   4.6371673  38.2506493  53.5606993   3.6041673  38.6326493
  53.4126993   4.3701673  38.5606493  56.6606993   9.7381673  37.2826493
  56.2686993   9.3671673  36.5966493  56.5806993   9.1401673  37.9116493
  56.5906993   9.5951673  37.2736493  56.2876993  11.3791673  41.1826493
  56.8956993  11.2091673  41.7856493  55.5366993  11.2391673  41.6036493
  56.2666993  11.3331673  41.3336493  55.1786993  14.4701673  37.2596493
  55.6456993  14.5541673  36.5276493  55.6336993  13.8921673  37.7286493
  55.3146993  14.3971673  37.2206493  53.7186993  13.4181673  48.3586493
  53.8476993  13.1381673  49.1746493  53.1086993  12.8771673  48.0496493
  53.6476993  13.2971673  48.4336493  60.2926993  10.9431673  53.4256493
  60.0566993  10.9401673  54.2656493  59.5446993  10.7951673  53.0016493
  60.1466993  10.9201673  53.4866493  55.1646993   7.9391673  42.5606493
  54.7026993   7.5471673  41.9336493  55.8646993   7.4261673  42.6526493
  55.1996993   7.8061673  42.4816493  59.6726993   3.5491673  47.9076493
  60.3506993   3.5671673  47.3586493  59.6276993   2.7131673  48.1526493
  59.7656993   3.4281673  47.8626493  60.2746993  14.1351673  50.6886493
  60.4126993  14.8951673  50.2816493  61.0656993  13.7701673  50.7156493
  60.4116993  14.1941673  50.6326493  57.1656993   6.0391673  42.5836493
  57.9826993   5.8521673  42.8266493  56.6886993   5.4251673  42.9796493
  57.2156993   5.9211673  42.6786493  61.3696993  12.0201673  45.1936493
  61.7176993  11.2211673  45.2236493  62.0346993  12.5241673  44.9386493
  61.5196993  11.9761673  45.1606493  61.4266993  11.4691673  41.4046493
  61.7576993  10.8251673  41.8906493  61.6666993  11.2581673  40.5936493
  61.5106993  11.3431673  41.3566493  63.3946993   5.6001673  52.7436493
  62.5466993   5.5011673  52.5656493  63.4236993   6.3451673  53.1976493
  63.2736993   5.6961673  52.7846493  65.4146993   3.2011673  36.3716493
  64.9646993   3.8821673  36.6786493  65.5286993   2.6971673  37.0746493
  65.3656993   3.2271673  36.5206493  53.6206993   5.7001673  45.5736493
  53.3646993   6.5311673  45.4986493  52.9566993   5.3171673  45.9906493
  53.4846993   5.7661673  45.6246493  53.5306993  15.4101673  43.4736493
  52.9386993  15.9681673  43.1606493  53.9566993  15.1411673  42.7616493
  53.5066993  15.4521673  43.3226493  59.3706993  13.2541673  40.9536493
  58.7916993  12.9791673  41.5456493  59.9946993  12.6451673  40.9786493
  59.3776993  13.1241673  41.0446493  65.5136993  15.5421673  38.4756493
  66.2406993  16.0141673  38.5776493  65.7426993  14.7481673  38.7556493
  65.6556993  15.4951673  38.5326493  63.6816993  15.9341673  40.4656493
  63.8956993  16.4611673  41.1276493  64.4486993  15.7601673  40.0866493
  63.8266993  15.9861673  40.5076493  59.9556993   2.6501673  55.3626493
  60.0726993   2.1961673  54.6266493  60.2436993   3.4481673  55.1596493
  60.0156993   2.7011673  55.2236493  55.0756993  14.0801673  41.4046493
  55.7316993  13.5051673  41.4196493  55.4646993  14.8291673  41.1836493
  55.2306993  14.1051673  41.3746493  55.6886993   2.2471673  54.3466493
  54.9106993   1.8571673  54.2746493  56.1796993   1.8351673  53.7556493
  55.6456993   2.1281673  54.2486493  55.8936993  12.5671673  44.9046493
  56.3166993  12.2111673  44.2306493  56.2176993  12.1451673  45.5966493
  56.0036993  12.4521673  44.9076493  59.1246993  15.4191673  44.2006493
  59.9686993  15.5231673  44.0056493  58.8276993  16.2371673  44.2686493
  59.2056993  15.5551673  44.1816493  62.9316993   4.8161673  42.2876493
  63.2186993   4.5841673  41.4976493  63.6636993   4.8951673  42.7566493
  63.0816993   4.7931673  42.2406493  63.6536993   5.1551673  37.4086493
  63.9346993   5.9431673  37.6576493  62.8776993   5.3201673  37.0456493
  63.5806993   5.2961673  37.3916493  58.1226993  16.6381673  49.9406493
  58.4146993  16.5711673  50.7606493  57.4966993  16.0331673  49.8956493
  58.0736993  16.5391673  50.0556493  53.0366993   2.7951673  51.9326493
  53.0326993   3.3821673  52.5786493  53.6306993   3.1071673  51.3756493
  53.1236993   2.9281673  51.9456493  65.3746993  13.1291673  52.4746493
  65.3406993  13.5111673  53.2586493  66.2286993  13.0871673  52.3036493
  65.4956993  13.1791673  52.5656493  62.5126993  13.3261673  37.2246493
  62.3316993  13.8711673  37.8816493  63.2786993  13.6161673  36.9236493
  62.5986993  13.4501673  37.2776493  56.1156993  14.8001673  49.0626493
  55.4176993  14.2921673  49.1886493  56.3756993  14.5951673  48.2546493
  56.0506993  14.6951673  48.9616493  63.2776993   3.5981673  39.5926493
  62.7696993   2.9361673  39.3386493  63.3296993   4.1021673  38.8826493
  63.2106993   3.5751673  39.4506493  63.8266993  16.2931673  49.9726493
  64.5946993  16.2131673  49.5666493  63.2436993  16.1721673  49.3346493
  63.8536993  16.2631673  49.8186493  61.8756993   2.9061673  44.0056493
  61.9496993   3.4741673  43.3476493  61.9966993   3.3981673  44.7156493
  61.9036993   3.0631673  44.0136493  57.4766993  13.6511673  51.6296493
  58.3176993  13.7141673  51.4076493  57.4396993  14.0481673  52.4056493
  57.5956993  13.7191673  51.7116493  59.4396993   9.1621673  46.3786493
  59.6116993   8.9521673  47.2076493  58.7846993   8.6281673  46.1626493
  59.3686993   9.0521673  46.4696493  65.6676993   3.0761673  49.8936493
  65.5726993   3.3951673  50.6996493  65.0746993   2.4371673  49.8556493
  65.5656993   3.0281673  50.0076493  60.1896993   9.1001673  48.9686493
  60.2426993   9.9471673  49.1706493  59.9046993   8.7301673  49.7056493
  60.1556993   9.1701673  49.1066493  66.3666993   9.7951673  48.0986493
  65.8526993   9.3831673  48.6696493  66.2406993  10.6391673  48.2796493
  66.2726993   9.8591673  48.2096493  53.0106993  13.4711673  55.1796493
  53.7666993  13.8201673  55.4376493  53.1876993  12.6181673  55.1226493
  53.1486993  13.3961673  55.2096493  56.9316993   2.5391673  44.0076493
  57.2036993   2.1091673  43.2996493  56.7556993   1.9031673  44.5786493
  56.9456993   2.3821673  43.9876493  56.7556993   9.9661673  43.5566493
  57.6066993   9.8861673  43.3836493  56.3986993   9.2841673  43.1446493
  56.8286993   9.8531673  43.4696493  55.5226993  16.6911673  44.7936493
  54.8496993  16.1931673  44.5486493  55.9256993  16.8761673  44.0426493
  55.4826993  16.6451673  44.6466493  55.0726993   3.6411673  47.0896493
  55.9156993   3.8611673  47.0466493  54.6836993   4.2141673  46.5586493
  55.1396993   3.7581673  47.0046493  59.1236993   9.9731673  41.7916493
  59.8366993  10.4681673  41.8816493  59.3456993   9.4061673  41.1656493
  59.2616993   9.9621673  41.7126493  53.2796993  11.6161673  45.1116493
  52.6126993  12.1041673  45.3876493  53.9596993  12.1611673  45.1406493
  53.2816993  11.7681673  45.1566493  60.9266993   5.3261673  55.2076493
  60.4426993   5.9031673  55.6496493  60.8986993   5.6211673  54.3866493
  60.8506993   5.4551673  55.1516493  53.3456993   8.3001673  40.2146493
  53.1606993   7.4611673  40.3666493  54.0046993   8.2641673  39.6446493
  53.4156993   8.1711673  40.1526493  63.6466993  13.6761673  44.1186493
  63.1236993  14.3101673  43.8256493  63.9566993  13.3121673  43.3896493
  63.6146993  13.7161673  43.9676493  53.5176993  12.4641673  39.7896493
  54.0696993  13.0331673  40.1536493  53.2856993  11.9491673  40.4546493
  53.5646993  12.4721673  39.9416493  57.7216993  11.4641673  46.8786493
  58.1886993  11.7531673  47.5566493  58.2936993  10.9861673  46.4246493
  57.8756993  11.4361673  46.9116493  53.3476993  10.9131673  37.4176493
  54.1036993  10.4811673  37.4756493  53.3626993  11.4451673  38.1086493
  53.4616993  10.9281673  37.5286493  54.2876993   9.1341673  45.4226493
  54.7186993   9.0051673  44.6756493  54.0826993   9.9821673  45.3966493
  54.3206993   9.2401673  45.3086493  60.6336993   2.6981673  39.0726493
  60.6316993   2.5811673  38.2076493  60.4526993   3.5461673  39.1646493
  60.6066993   2.8061673  38.9586493  58.3716993  12.6501673  43.7046493
  58.4976993  13.4931673  43.8916493  59.0396993  12.2511673  44.1006493
  58.4896993  12.7161673  43.7906493  56.5016993   6.1331673  53.5666493
  55.9656993   5.6271673  54.0346493  56.5216993   5.7431673  52.7866493
  56.4246993   6.0001673  53.5206493  56.9866993   5.5301673  38.7066493
  56.8586993   5.0821673  39.4446493  56.4046993   5.1881673  38.1546493
  56.8816993   5.4131673  38.7346493  57.1536993   7.3601673  45.3056493
  56.3726993   7.3011673  44.9226493  57.2256993   6.6081673  45.7426493
  57.0486993   7.2411673  45.3136493  57.5836993   7.0971673  48.7736493
  57.6086993   6.4221673  48.2226493  56.9376993   7.5931673  48.4616493
  57.4926993   7.0701673  48.6466493  61.6836993  15.8741673  48.1656493
  61.4066993  15.2331673  47.6426493  61.4756993  16.6001673  47.7276493
  61.6126993  15.8871673  48.0236493  65.6716993   2.7791673  40.6806493
  66.1616993   3.4961673  40.6036493  64.8816993   3.0401673  40.4176493
  65.6276993   2.9231673  40.6306493  55.3826993   8.4521673  54.3326493
  55.3456993   8.9531673  53.6186493  55.7136993   7.7001673  54.0376493
  55.4256993   8.4141673  54.1836493  61.2816993  13.5021673  53.7676493
  61.6356993  13.3241673  54.5446493  60.8456993  12.7731673  53.5686493
  61.2696993  13.3681673  53.8536493  62.2536993   4.2491673  46.4056493
  62.7336993   4.9481673  46.6136493  62.6266993   3.6021673  46.8566493
  62.3796993   4.2571673  46.5026493  64.4426993   7.4181673  38.6796493
  64.4346993   8.1401673  38.1896493  63.8036993   7.5531673  39.2566493
  64.3476993   7.5451673  38.6926493  65.4596993  14.3541673  46.5046493
  64.8566993  14.0581673  45.9476493  66.0046993  14.8061673  45.9956493
  65.4506993  14.3771673  46.3466493  65.4726993  11.2051673  45.9046493
  64.6756993  11.4291673  46.1786493  65.7306993  10.6111673  46.4896493
  65.3926993  11.1501673  46.0316493  59.3646993  16.0171673  40.3526493
  59.2176993  15.2411673  40.7236493  60.0536993  15.8701673  39.8376493
  59.4446993  15.8801673  40.3316493  61.6566993  15.5331673  38.7546493
  62.2786993  15.6961673  39.3446493  61.6926993  16.2241673  38.2226493
  61.7536993  15.6591673  38.7636493  64.9236993  14.5521673  55.0276493
  65.0876993  14.8351673  55.8366493  65.1866993  15.2131673  54.5226493
  64.9866993  14.6921673  55.0726493  56.1576993   8.0671673  39.5836493
  56.4816993   7.2881673  39.3616493  56.8036993   8.4351673  40.0386493
  56.3006993   8.0061673  39.6176493  64.4636993   9.0091673  50.3506493
  64.3086993   9.6191673  50.9546493  64.9976993   8.4511673  50.7566493
  64.5196993   9.0171673  50.4996493  62.8476993   7.4091673  41.0086493
  62.9066993   8.0591673  41.5876493  62.6586993   6.7131673  41.4996493
  62.8286993   7.4021673  41.1666493  57.3436993   1.9261673  37.5206493
  56.8326993   1.9791673  36.8146493  58.1276993   2.1661673  37.2246493
  57.3836993   1.9691673  37.3726493  62.0706993   9.4561673  45.4396493
  61.2236993   9.2621673  45.5206493  62.3946993   9.2911673  46.2326493
  61.9926993   9.4031673  45.5686493  58.8226993  16.1861673  36.3256493
  59.2616993  15.4891673  36.6136493  59.0296993  16.8101673  36.8986493
  58.9186993  16.1751673  36.4526493  55.9186993   9.1491673  47.7556493
  56.6406993   9.6371673  47.7186493  55.6486993   9.1191673  46.9266493
  55.9856993   9.2171673  47.6276493  59.1486993   4.3201673  44.4906493
  59.9946993   4.1301673  44.5886493  58.7786993   3.5431673  44.3526493
  59.2186993   4.1771673  44.4846493  53.9696993   5.6581673  41.1456493
  54.4586993   5.3661673  41.8066493  54.0986993   5.0651673  40.5186493
  54.0606993   5.5271673  41.1506493  58.4946993   7.0921673  36.6316493
  57.8846993   6.6871673  37.1056493  58.1086993   7.2101673  35.8586493
  58.3476993   7.0491673  36.5876493  55.3136993  10.2011673  52.0336493
  54.8926993   9.6831673  51.4726493  54.9616993  10.9871673  51.8906493
  55.1996993  10.2411673  51.9296493  59.9496993   5.5531673  39.3416493
  60.2216993   6.3791673  39.4086493  59.0866993   5.6281673  39.2456493
  59.8626993   5.6861673  39.3366493  65.3706993  10.8621673  37.3476493
  66.0546993  10.3481673  37.1786493  64.9536993  10.9081673  36.5826493
  65.4096993  10.7931673  37.2096493  60.0526993  12.0121673  48.6516493
  59.7546993  12.6041673  49.2186493  60.1076993  12.4541673  47.9026493
  60.0166993  12.1651673  48.6246493  58.0316993  10.9621673  52.0496493
  57.2256993  10.6721673  52.2166493  57.9426993  11.8301673  52.0556493
  57.8996993  11.0471673  52.0746493  62.5686993   8.4351673  48.1426493
  63.0446993   8.8091673  48.7706493  61.7456993   8.5691673  48.4016493
  62.5176993   8.5101673  48.2736493  59.2786993   4.0381673  50.8836493
  59.4396993   3.2941673  51.3106493  59.2336993   3.7891673  50.0486493
  59.2956993   3.8911673  50.8236493  61.8326993  15.8281673  43.3706493
  62.3786993  16.5071673  43.4246493  61.4826993  15.9101673  42.5756493
  61.8616993  15.9411673  43.2606493  60.0156993  14.0561673  46.7596493
  59.3916993  14.6381673  46.5776493  60.2636993  13.7701673  45.9736493
  59.9596993  14.1001673  46.6166493  64.3246993  10.6901673  53.7486493
  65.0816993  10.9761673  53.4226493  63.7776993  10.7421673  53.0706493
  64.3556993  10.7401673  53.5996493  61.6096993   8.8321673  36.6746493
  60.8046993   8.6551673  36.3896493  61.5766993   9.6831673  36.8666493
  61.4856993   8.9311673  36.6616493  57.5396993   4.8991673  46.8246493
  57.9796993   4.7961673  46.0786493  58.0846993   4.5861673  47.4296493
  57.6846993   4.8381673  46.8036493  65.5556993   4.0011673  52.4166493
  64.9076993   4.4711673  52.7646493  66.1206993   3.9121673  53.0756493
  65.5436993   4.0571673  52.5656493  65.2436993   5.5381673  48.7146493
  65.5456993   5.9581673  49.4176493  65.2796993   4.6981673  48.9466493
  65.2936993   5.4761673  48.8526493  62.6686993  15.7051673  52.6396493
  63.1466993  15.1051673  52.2236493  62.3176993  15.2621673  53.3046493
  62.6876993  15.5511673  52.6766493  62.7276993  10.9241673  51.6596493
  61.9326993  10.8601673  52.0106493  62.7986993  11.7711673  51.4646493
  62.6206993  11.0391673  51.6826493  58.5576993  17.1311673  46.9766493
  58.5686993  17.1901673  47.8466493  58.1326993  16.3841673  46.8266493
  58.4966993  17.0291673  47.0826493  56.7156993   3.0261673  40.1316493
  56.8416993   2.6971673  39.3336493  55.9036993   2.7771673  40.3306493
  56.6146993   2.9411673  40.0436493  65.4726993  10.1791673  43.1756493
  65.5486993  10.5201673  43.9746493  65.6416993   9.3321673  43.2966493
  65.5086993  10.1041673  43.3116493  62.9946993   9.4531673  42.7406493
  62.6966993   9.1381673  43.4976493  63.6896993   9.9261673  42.9756493
  63.0536993   9.4761673  42.8876493  63.2166993  13.5711673  50.7676493
  63.9036993  13.4571673  51.2926493  63.3506993  14.3621673  50.4236493
  63.3376993  13.6711673  50.7946493  55.3216993  16.6291673  52.4186493
  54.6676993  16.0601673  52.5166493  54.9466993  17.4021673  52.5696493
  55.1696993  16.6591673  52.4556493  63.8396993   8.0351673  54.3416493
  64.1626993   8.7211673  53.9096493  63.1356993   8.3581673  54.7436493
  63.7826993   8.1841673  54.3366493  63.6246993  11.4991673  48.2006493
  62.9306993  11.9011673  48.5436493  64.3016993  11.9321673  48.5396493
  63.6216993  11.6221673  48.3016493  56.6926993   5.0371673  50.5476493
  57.0676993   5.6561673  50.0606493  57.3666993   4.5631673  50.8326493
  56.8476993   5.0591673  50.5176493  54.4676993   3.4851673  49.8226493
  54.5446993   3.3161673  48.9696493  55.2136993   3.8911673  50.0196493
  54.5886993   3.5201673  49.7256493  63.9466993  13.0901673  41.3696493
  63.7416993  13.9231673  41.2106493  63.1716993  12.7081673  41.4916493
  63.8016993  13.1571673  41.3646493  53.8646993   8.7111673  50.0466493
  54.1846993   8.9301673  49.2656493  53.7646993   7.8461673  49.9916493
  53.8966993   8.6161673  49.9236493  55.3206993   4.6471673  36.6646493
  54.6486993   4.6611673  37.2206493  55.4156993   3.7991673  36.4806493
  55.2356993   4.5241673  36.7196493  59.3086993  13.3521673  37.7786493
  59.7496993  13.4321673  38.5266493  58.5036993  13.1361673  38.0366493
  59.2546993  13.3321673  37.9276493  58.6276993   8.0031673  51.4316493
  58.2316993   8.7771673  51.5066493  58.2216993   7.6301673  50.7556493
  58.5096993   8.0621673  51.3426493  56.6376993  12.4221673  38.3796493
  56.3936993  12.1151673  39.1596493  56.6046993  11.7191673  37.8636493
  56.5966993  12.2731673  38.4186493  59.4566993  10.6671673  37.1226493
  58.6386993  10.3991673  37.2626493  59.4286993  11.5191673  37.3076493
  59.3316993  10.7541673  37.1706493  65.8916993  12.5761673  49.0436493
  66.0976993  12.8771673  49.8356493  65.8306993  13.2981673  48.5586493
  65.9126993  12.7271673  49.0886493  65.4256993  16.7901673  53.2896493
  64.6726993  16.7721673  52.8486493  65.5936993  17.6421673  53.3736493
  65.3396993  16.9131673  53.2366493  60.6626993   6.0571673  52.4596493
  60.3406993   5.4811673  51.8896493  60.3036993   6.8121673  52.2136493
  60.5626993   6.0831673  52.3396493  59.0976993  16.4131673  52.7076493
  59.1386993  16.5391673  53.5706493  59.7486993  15.8531673  52.5516493
  59.1996993  16.3491673  52.8126493  56.6906993  14.7961673  54.0676493
  57.2856993  15.2271673  54.5396493  56.3266993  15.4201673  53.5786493
  56.7246993  14.9521673  54.0646493  64.6816993   5.7271673  43.9996493
  65.2326993   5.1201673  44.2996493  64.2566993   5.9901673  44.7146493
  64.7006993   5.6761673  44.1486493  54.9296993   4.3771673  43.4856493
  54.5616993   4.6791673  44.2166493  55.4636993   3.7481673  43.7696493
  54.9536993   4.3291673  43.6356493  54.6176993  12.7851673  50.9966493
  54.0436993  13.2011673  51.5056493  55.3506993  13.2501673  51.0916493
  54.6416993  12.9151673  51.0856493  56.4036993  16.0521673  39.7716493
  56.2586993  16.2081673  38.9256493  57.2696993  16.1311673  39.8496493
  56.5106993  16.0871673  39.6586493  60.5706993   8.4491673  39.4996493
  60.6706993   8.5881673  38.6446493  61.3886993   8.3891673  39.7956493
  60.7056993   8.4601673  39.4166493  65.8056993  12.7781673  39.3016493
  65.5546993  12.6501673  40.1276493  65.4886993  12.0831673  38.8806493
  65.7216993  12.6571673  39.3616493  57.0906993  14.8671673  46.2486493
  57.0116993  14.0571673  45.9326493  56.6466993  15.3541673  45.6766493
  57.0136993  14.8191673  46.1176493  62.6916993  10.9861673  38.7316493
  63.4086993  10.6391673  38.3756493  62.6576993  11.7861673  38.3836493
  62.7926993  11.0531673  38.6276493  54.6626993  17.1111673  49.8296493
  55.1556993  17.0551673  50.5476493  54.8506993  16.3781673  49.3946493
  54.7636993  16.9941673  49.8716493  63.9096993   6.5431673  27.6414083
  63.3856993   7.1391673  28.0044083  64.3066993   6.1751673  28.3254083
  63.8906993   6.5771673  27.7964083  53.7786993  10.6831673  23.0974083
  53.3376993  10.8011673  23.8404083  53.4956993   9.9081673  22.8124083
  53.6716993  10.5861673  23.1654083  53.5216993   4.4751673  19.6044083
  52.7436993   4.6371673  19.2444083  53.5606993   3.6041673  19.6264083
  53.4126993   4.3701673  19.5544083  56.6606993   9.7381673  18.2764083
  56.2686993   9.3671673  17.5904083  56.5806993   9.1401673  18.9054083
  56.5906993   9.5951673  18.2674083  56.2876993  11.3791673  22.1764083
  56.8956993  11.2091673  22.7794083  55.5366993  11.2391673  22.5974083
  56.2666993  11.3331673  22.3274083  55.1786993  14.4701673  18.2534083
  55.6456993  14.5541673  17.5214083  55.6336993  13.8921673  18.7224083
  55.3146993  14.3971673  18.2144083  53.7186993  13.4181673  29.3524083
  53.8476993  13.1381673  30.1684083  53.1086993  12.8771673  29.0434083
  53.6476993  13.2971673  29.4274083  60.2926993  10.9431673  34.4194083
  60.0566993  10.9401673  35.2594083  59.5446993  10.7951673  33.9954083
  60.1466993  10.9201673  34.4804083  55.1646993   7.9391673  23.5544083
  54.7026993   7.5471673  22.9274083  55.8646993   7.4261673  23.6464083
  55.1996993   7.8061673  23.4754083  59.6726993   3.5491673  28.9014083
  60.3506993   3.5671673  28.3524083  59.6276993   2.7131673  29.1464083
  59.7656993   3.4281673  28.8564083  60.2746993  14.1351673  31.6824083
  60.4126993  14.8951673  31.2754083  61.0656993  13.7701673  31.7094083
  60.4116993  14.1941673  31.6264083  57.1656993   6.0391673  23.5774083
  57.9826993   5.8521673  23.8204083  56.6886993   5.4251673  23.9734083
  57.2156993   5.9211673  23.6724083  61.3696993  12.0201673  26.1874083
  61.7176993  11.2211673  26.2174083  62.0346993  12.5241673  25.9324083
  61.5196993  11.9761673  26.1544083  61.4266993  11.4691673  22.3984083
  61.7576993  10.8251673  22.8844083  61.6666993  11.2581673  21.5874083
  61.5106993  11.3431673  22.3504083  63.3946993   5.6001673  33.7374083
  62.5466993   5.5011673  33.5594083  63.4236993   6.3451673  34.1914083
  63.2736993   5.6961673  33.7784083  65.4146993   3.2011673  17.3654083
  64.9646993   3.8821673  17.6724083  65.5286993   2.6971673  18.0684083
  65.3656993   3.2271673  17.5144083  53.6206993   5.7001673  26.5674083
  53.3646993   6.5311673  26.4924083  52.9566993   5.3171673  26.9844083
  53.4846993   5.7661673  26.6184083  53.5306993  15.4101673  24.4674083
  52.9386993  15.9681673  24.1544083  53.9566993  15.1411673  23.7554083
  53.5066993  15.4521673  24.3164083  59.3706993  13.2541673  21.9474083
  58.7916993  12.9791673  22.5394083  59.9946993  12.6451673  21.9724083
  59.3776993  13.1241673  22.0384083  65.5136993  15.5421673  19.4694083
  66.2406993  16.0141673  19.5714083  65.7426993  14.7481673  19.7494083
  65.6556993  15.4951673  19.5264083  63.6816993  15.9341673  21.4594083
  63.8956993  16.4611673  22.1214083  64.4486993  15.7601673  21.0804083
  63.8266993  15.9861673  21.5014083  59.9556993   2.6501673  36.3564083
  60.0726993   2.1961673  35.6204083  60.2436993   3.4481673  36.1534083
  60.0156993   2.7011673  36.2174083  55.0756993  14.0801673  22.3984083
  55.7316993  13.5051673  22.4134083  55.4646993  14.8291673  22.1774083
  55.2306993  14.1051673  22.3684083  55.6886993   2.2471673  35.3404083
  54.9106993   1.8571673  35.2684083  56.1796993   1.8351673  34.7494083
  55.6456993   2.1281673  35.2424083  55.8936993  12.5671673  25.8984083
  56.3166993  12.2111673  25.2244083  56.2176993  12.1451673  26.5904083
  56.0036993  12.4521673  25.9014083  59.1246993  15.4191673  25.1944083
  59.9686993  15.5231673  24.9994083  58.8276993  16.2371673  25.2624083
  59.2056993  15.5551673  25.1754083  62.9316993   4.8161673  23.2814083
  63.2186993   4.5841673  22.4914083  63.6636993   4.8951673  23.7504083
  63.0816993   4.7931673  23.2344083  63.6536993   5.1551673  18.4024083
  63.9346993   5.9431673  18.6514083  62.8776993   5.3201673  18.0394083
  63.5806993   5.2961673  18.3854083  58.1226993  16.6381673  30.9344083
  58.4146993  16.5711673  31.7544083  57.4966993  16.0331673  30.8894083
  58.0736993  16.5391673  31.0494083  53.0366993   2.7951673  32.9264083
  53.0326993   3.3821673  33.5724083  53.6306993   3.1071673  32.3694083
  53.1236993   2.9281673  32.9394083  65.3746993  13.1291673  33.4684083
  65.3406993  13.5111673  34.2524083  66.2286993  13.0871673  33.2974083
  65.4956993  13.1791673  33.5594083  62.5126993  13.3261673  18.2184083
  62.3316993  13.8711673  18.8754083  63.2786993  13.6161673  17.9174083
  62.5986993  13.4501673  18.2714083  56.1156993  14.8001673  30.0564083
  55.4176993  14.2921673  30.1824083  56.3756993  14.5951673  29.2484083
  56.0506993  14.6951673  29.9554083  63.2776993   3.5981673  20.5864083
  62.7696993   2.9361673  20.3324083  63.3296993   4.1021673  19.8764083
  63.2106993   3.5751673  20.4444083  63.8266993  16.2931673  30.9664083
  64.5946993  16.2131673  30.5604083  63.2436993  16.1721673  30.3284083
  63.8536993  16.2631673  30.8124083  61.8756993   2.9061673  24.9994083
  61.9496993   3.4741673  24.3414083  61.9966993   3.3981673  25.7094083
  61.9036993   3.0631673  25.0074083  57.4766993  13.6511673  32.6234083
  58.3176993  13.7141673  32.4014083  57.4396993  14.0481673  33.3994083
  57.5956993  13.7191673  32.7054083  59.4396993   9.1621673  27.3724083
  59.6116993   8.9521673  28.2014083  58.7846993   8.6281673  27.1564083
  59.3686993   9.0521673  27.4634083  65.6676993   3.0761673  30.8874083
  65.5726993   3.3951673  31.6934083  65.0746993   2.4371673  30.8494083
  65.5656993   3.0281673  31.0014083  60.1896993   9.1001673  29.9624083
  60.2426993   9.9471673  30.1644083  59.9046993   8.7301673  30.6994083
  60.1556993   9.1701673  30.1004083  66.3666993   9.7951673  29.0924083
  65.8526993   9.3831673  29.6634083  66.2406993  10.6391673  29.2734083
  66.2726993   9.8591673  29.2034083  53.0106993  13.4711673  36.1734083
  53.7666993  13.8201673  36.4314083  53.1876993  12.6181673  36.1164083
  53.1486993  13.3961673  36.2034083  56.9316993   2.5391673  25.0014083
  57.2036993   2.1091673  24.2934083  56.7556993   1.9031673  25.5724083
  56.9456993   2.3821673  24.9814083  56.7556993   9.9661673  24.5504083
  57.6066993   9.8861673  24.3774083  56.3986993   9.2841673  24.1384083
  56.8286993   9.8531673  24.4634083  55.5226993  16.6911673  25.7874083
  54.8496993  16.1931673  25.5424083  55.9256993  16.8761673  25.0364083
  55.4826993  16.6451673  25.6404083  55.0726993   3.6411673  28.0834083
  55.9156993   3.8611673  28.0404083  54.6836993   4.2141673  27.5524083
  55.1396993   3.7581673  27.9984083  59.1236993   9.9731673  22.7854083
  59.8366993  10.4681673  22.8754083  59.3456993   9.4061673  22.1594083
  59.2616993   9.9621673  22.7064083  53.2796993  11.6161673  26.1054083
  52.6126993  12.1041673  26.3814083  53.9596993  12.1611673  26.1344083
  53.2816993  11.7681673  26.1504083  60.9266993   5.3261673  36.2014083
  60.4426993   5.9031673  36.6434083  60.8986993   5.6211673  35.3804083
  60.8506993   5.4551673  36.1454083  53.3456993   8.3001673  21.2084083
  53.1606993   7.4611673  21.3604083  54.0046993   8.2641673  20.6384083
  53.4156993   8.1711673  21.1464083  63.6466993  13.6761673  25.1124083
  63.1236993  14.3101673  24.8194083  63.9566993  13.3121673  24.3834083
  63.6146993  13.7161673  24.9614083  53.5176993  12.4641673  20.7834083
  54.0696993  13.0331673  21.1474083  53.2856993  11.9491673  21.4484083
  53.5646993  12.4721673  20.9354083  57.7216993  11.4641673  27.8724083
  58.1886993  11.7531673  28.5504083  58.2936993  10.9861673  27.4184083
  57.8756993  11.4361673  27.9054083  53.3476993  10.9131673  18.4114083
  54.1036993  10.4811673  18.4694083  53.3626993  11.4451673  19.1024083
  53.4616993  10.9281673  18.5224083  54.2876993   9.1341673  26.4164083
  54.7186993   9.0051673  25.6694083  54.0826993   9.9821673  26.3904083
  54.3206993   9.2401673  26.3024083  60.6336993   2.6981673  20.0664083
  60.6316993   2.5811673  19.2014083  60.4526993   3.5461673  20.1584083
  60.6066993   2.8061673  19.9524083  58.3716993  12.6501673  24.6984083
  58.4976993  13.4931673  24.8854083  59.0396993  12.2511673  25.0944083
  58.4896993  12.7161673  24.7844083  56.5016993   6.1331673  34.5604083
  55.9656993   5.6271673  35.0284083  56.5216993   5.7431673  33.7804083
  56.4246993   6.0001673  34.5144083  56.9866993   5.5301673  19.7004083
  56.8586993   5.0821673  20.4384083  56.4046993   5.1881673  19.1484083
  56.8816993   5.4131673  19.7284083  57.1536993   7.3601673  26.2994083
  56.3726993   7.3011673  25.9164083  57.2256993   6.6081673  26.7364083
  57.0486993   7.2411673  26.3074083  57.5836993   7.0971673  29.7674083
  57.6086993   6.4221673  29.2164083  56.9376993   7.5931673  29.4554083
  57.4926993   7.0701673  29.6404083  61.6836993  15.8741673  29.1594083
  61.4066993  15.2331673  28.6364083  61.4756993  16.6001673  28.7214083
  61.6126993  15.8871673  29.0174083  65.6716993   2.7791673  21.6744083
  66.1616993   3.4961673  21.5974083  64.8816993   3.0401673  21.4114083
  65.6276993   2.9231673  21.6244083  55.3826993   8.4521673  35.3264083
  55.3456993   8.9531673  34.6124083  55.7136993   7.7001673  35.0314083
  55.4256993   8.4141673  35.1774083  61.2816993  13.5021673  34.7614083
  61.6356993  13.3241673  35.5384083  60.8456993  12.7731673  34.5624083
  61.2696993  13.3681673  34.8474083  62.2536993   4.2491673  27.3994083
  62.7336993   4.9481673  27.6074083  62.6266993   3.6021673  27.8504083
  62.3796993   4.2571673  27.4964083  64.4426993   7.4181673  19.6734083
  64.4346993   8.1401673  19.1834083  63.8036993   7.5531673  20.2504083
  64.3476993   7.5451673  19.6864083  65.4596993  14.3541673  27.4984083
  64.8566993  14.0581673  26.9414083  66.0046993  14.8061673  26.9894083
  65.4506993  14.3771673  27.3404083  65.4726993  11.2051673  26.8984083
  64.6756993  11.4291673  27.1724083  65.7306993  10.6111673  27.4834083
  65.3926993  11.1501673  27.0254083  59.3646993  16.0171673  21.3464083
  59.2176993  15.2411673  21.7174083  60.0536993  15.8701673  20.8314083
  59.4446993  15.8801673  21.3254083  61.6566993  15.5331673  19.7484083
  62.2786993  15.6961673  20.3384083  61.6926993  16.2241673  19.2164083
  61.7536993  15.6591673  19.7574083  64.9236993  14.5521673  36.0214083
  65.0876993  14.8351673  36.8304083  65.1866993  15.2131673  35.5164083
  64.9866993  14.6921673  36.0664083  56.1576993   8.0671673  20.5774083
  56.4816993   7.2881673  20.3554083  56.8036993   8.4351673  21.0324083
  56.3006993   8.0061673  20.6114083  64.4636993   9.0091673  31.3444083
  64.3086993   9.6191673  31.9484083  64.9976993   8.4511673  31.7504083
  64.5196993   9.0171673  31.4934083  62.8476993   7.4091673  22.0024083
  62.9066993   8.0591673  22.5814083  62.6586993   6.7131673  22.4934083
  62.8286993   7.4021673  22.1604083  57.3436993   1.9261673  18.5144083
  56.8326993   1.9791673  17.8084083  58.1276993   2.1661673  18.2184083
  57.3836993   1.9691673  18.3664083  62.0706993   9.4561673  26.4334083
  61.2236993   9.2621673  26.5144083  62.3946993   9.2911673  27.2264083
  61.9926993   9.4031673  26.5624083  58.8226993  16.1861673  17.3194083
  59.2616993  15.4891673  17.6074083  59.0296993  16.8101673  17.8924083
  58.9186993  16.1751673  17.4464083  55.9186993   9.1491673  28.7494083
  56.6406993   9.6371673  28.7124083  55.6486993   9.1191673  27.9204083
  55.9856993   9.2171673  28.6214083  59.1486993   4.3201673  25.4844083
  59.9946993   4.1301673  25.5824083  58.7786993   3.5431673  25.3464083
  59.2186993   4.1771673  25.4784083  53.9696993   5.6581673  22.1394083
  54.4586993   5.3661673  22.8004083  54.0986993   5.0651673  21.5124083
  54.0606993   5.5271673  22.1444083  58.4946993   7.0921673  17.6254083
  57.8846993   6.6871673  18.0994083  58.1086993   7.2101673  16.8524083
  58.3476993   7.0491673  17.5814083  55.3136993  10.2011673  33.0274083
  54.8926993   9.6831673  32.4664083  54.9616993  10.9871673  32.8844083
  55.1996993  10.2411673  32.9234083  59.9496993   5.5531673  20.3354083
  60.2216993   6.3791673  20.4024083  59.0866993   5.6281673  20.2394083
  59.8626993   5.6861673  20.3304083  65.3706993  10.8621673  18.3414083
  66.0546993  10.3481673  18.1724083  64.9536993  10.9081673  17.5764083
  65.4096993  10.7931673  18.2034083  60.0526993  12.0121673  29.6454083
  59.7546993  12.6041673  30.2124083  60.1076993  12.4541673  28.8964083
  60.0166993  12.1651673  29.6184083  58.0316993  10.9621673  33.0434083
  57.2256993  10.6721673  33.2104083  57.9426993  11.8301673  33.0494083
  57.8996993  11.0471673  33.0684083  62.5686993   8.4351673  29.1364083
  63.0446993   8.8091673  29.7644083  61.7456993   8.5691673  29.3954083
  62.5176993   8.5101673  29.2674083  59.2786993   4.0381673  31.8774083
  59.4396993   3.2941673  32.3044083  59.2336993   3.7891673  31.0424083
  59.2956993   3.8911673  31.8174083  61.8326993  15.8281673  24.3644083
  62.3786993  16.5071673  24.4184083  61.4826993  15.9101673  23.5694083
  61.8616993  15.9411673  24.2544083  60.0156993  14.0561673  27.7534083
  59.3916993  14.6381673  27.5714083  60.2636993  13.7701673  26.9674083
  59.9596993  14.1001673  27.6104083  64.3246993  10.6901673  34.7424083
  65.0816993  10.9761673  34.4164083  63.7776993  10.7421673  34.0644083
  64.3556993  10.7401673  34.5934083  61.6096993   8.8321673  17.6684083
  60.8046993   8.6551673  17.3834083  61.5766993   9.6831673  17.8604083
  61.4856993   8.9311673  17.6554083  57.5396993   4.8991673  27.8184083
  57.9796993   4.7961673  27.0724083  58.0846993   4.5861673  28.4234083
  57.6846993   4.8381673  27.7974083  65.5556993   4.0011673  33.4104083
  64.9076993   4.4711673  33.7584083  66.1206993   3.9121673  34.0694083
  65.5436993   4.0571673  33.5594083  65.2436993   5.5381673  29.7084083
  65.5456993   5.9581673  30.4114083  65.2796993   4.6981673  29.9404083
  65.2936993   5.4761673  29.8464083  62.6686993  15.7051673  33.6334083
  63.1466993  15.1051673  33.2174083  62.3176993  15.2621673  34.2984083
  62.6876993  15.5511673  33.6704083  62.7276993  10.9241673  32.6534083
  61.9326993  10.8601673  33.0044083  62.7986993  11.7711673  32.4584083
  62.6206993  11.0391673  32.6764083  58.5576993  17.1311673  27.9704083
  58.5686993  17.1901673  28.8404083  58.1326993  16.3841673  27.8204083
  58.4966993  17.0291673  28.0764083  56.7156993   3.0261673  21.1254083
  56.8416993   2.6971673  20.3274083  55.9036993   2.7771673  21.3244083
  56.6146993   2.9411673  21.0374083  65.4726993  10.1791673  24.1694083
  65.5486993  10.5201673  24.9684083  65.6416993   9.3321673  24.2904083
  65.5086993  10.1041673  24.3054083  62.9946993   9.4531673  23.7344083
  62.6966993   9.1381673  24.4914083  63.6896993   9.9261673  23.9694083
  63.0536993   9.4761673  23.8814083  63.2166993  13.5711673  31.7614083
  63.9036993  13.4571673  32.2864083  63.3506993  14.3621673  31.4174083
  63.3376993  13.6711673  31.7884083  55.3216993  16.6291673  33.4124083
  54.6676993  16.0601673  33.5104083  54.9466993  17.4021673  33.5634083
  55.1696993  16.6591673  33.4494083  63.8396993   8.0351673  35.3354083
  64.1626993   8.7211673  34.9034083  63.1356993   8.3581673  35.7374083
  63.7826993   8.1841673  35.3304083  63.6246993  11.4991673  29.1944083
  62.9306993  11.9011673  29.5374083  64.3016993  11.9321673  29.5334083
  63.6216993  11.6221673  29.2954083  56.6926993   5.0371673  31.5414083
  57.0676993   5.6561673  31.0544083  57.3666993   4.5631673  31.8264083
  56.8476993   5.0591673  31.5114083  54.4676993   3.4851673  30.8164083
  54.5446993   3.3161673  29.9634083  55.2136993   3.8911673  31.0134083
  54.5886993   3.5201673  30.7194083  63.9466993  13.0901673  22.3634083
  63.7416993  13.9231673  22.2044083  63.1716993  12.7081673  22.4854083
  63.8016993  13.1571673  22.3584083  53.8646993   8.7111673  31.0404083
  54.1846993   8.9301673  30.2594083  53.7646993   7.8461673  30.9854083
  53.8966993   8.6161673  30.9174083  55.3206993   4.6471673  17.6584083
  54.6486993   4.6611673  18.2144083  55.4156993   3.7991673  17.4744083
  55.2356993   4.5241673  17.7134083  59.3086993  13.3521673  18.7724083
  59.7496993  13.4321673  19.5204083  58.5036993  13.1361673  19.0304083
  59.2546993  13.3321673  18.9214083  58.6276993   8.0031673  32.4254083
  58.2316993   8.7771673  32.5004083  58.2216993   7.6301673  31.7494083
  58.5096993   8.0621673  32.3364083  56.6376993  12.4221673  19.3734083
  56.3936993  12.1151673  20.1534083  56.6046993  11.7191673  18.8574083
  56.5966993  12.2731673  19.4124083  59.4566993  10.6671673  18.1164083
  58.6386993  10.3991673  18.2564083  59.4286993  11.5191673  18.3014083
  59.3316993  10.7541673  18.1644083  65.8916993  12.5761673  30.0374083
  66.0976993  12.8771673  30.8294083  65.8306993  13.2981673  29.5524083
  65.9126993  12.7271673  30.0824083  65.4256993  16.7901673  34.2834083
  64.6726993  16.7721673  33.8424083  65.5936993  17.6421673  34.3674083
  65.3396993  16.9131673  34.2304083  60.6626993   6.0571673  33.4534083
  60.3406993   5.4811673  32.8834083  60.3036993   6.8121673  33.2074083
  60.5626993   6.0831673  33.3334083  59.0976993  16.4131673  33.7014083
  59.1386993  16.5391673  34.5644083  59.7486993  15.8531673  33.5454083
  59.1996993  16.3491673  33.8064083  56.6906993  14.7961673  35.0614083
  57.2856993  15.2271673  35.5334083  56.3266993  15.4201673  34.5724083
  56.7246993  14.9521673  35.0584083  64.6816993   5.7271673  24.9934083
  65.2326993   5.1201673  25.2934083  64.2566993   5.9901673  25.7084083
  64.7006993   5.6761673  25.1424083  54.9296993   4.3771673  24.4794083
  54.5616993   4.6791673  25.2104083  55.4636993   3.7481673  24.7634083
  54.9536993   4.3291673  24.6294083  54.6176993  12.7851673  31.9904083
  54.0436993  13.2011673  32.4994083  55.3506993  13.2501673  32.0854083
  54.6416993  12.9151673  32.0794083  56.4036993  16.0521673  20.7654083
  56.2586993  16.2081673  19.9194083  57.2696993  16.1311673  20.8434083
  56.5106993  16.0871673  20.6524083  60.5706993   8.4491673  20.4934083
  60.6706993   8.5881673  19.6384083  61.3886993   8.3891673  20.7894083
  60.7056993   8.4601673  20.4104083  65.8056993  12.7781673  20.2954083
  65.5546993  12.6501673  21.1214083  65.4886993  12.0831673  19.8744083
  65.7216993  12.6571673  20.3554083  57.0906993  14.8671673  27.2424083
  57.0116993  14.0571673  26.9264083  56.6466993  15.3541673  26.6704083
  57.0136993  14.8191673  27.1114083  62.6916993  10.9861673  19.7254083
  63.4086993  10.6391673  19.3694083  62.6576993  11.7861673  19.3774083
  62.7926993  11.0531673  19.6214083  54.6626993  17.1111673  30.8234083
  55.1556993  17.0551673  31.5414083  54.8506993  16.3781673  30.3884083
  54.7636993  16.9941673  30.8654083  63.9096993   6.5431673   8.6351673
  63.3856993   7.1391673   8.9981673  64.3066993   6.1751673   9.3191673
  63.8906993   6.5771673   8.7901673  53.7786993  10.6831673   4.0911673
  53.3376993  10.8011673   4.8341673  53.4956993   9.9081673   3.8061673
  53.6716993  10.5861673   4.1591673  56.2876993  11.3791673   3.1701673
  56.8956993  11.2091673   3.7731673  55.5366993  11.2391673   3.5911673
  56.2666993  11.3331673   3.3211673  53.7186993  13.4181673  10.3461673
  53.8476993  13.1381673  11.1621673  53.1086993  12.8771673  10.0371673
  53.6476993  13.2971673  10.4211673  60.2926993  10.9431673  15.4131673
  60.0566993  10.9401673  16.2531673  59.5446993  10.7951673  14.9891673
  60.1466993  10.9201673  15.4741673  55.1646993   7.9391673   4.5481673
  54.7026993   7.5471673   3.9211673  55.8646993   7.4261673   4.6401673
  55.1996993   7.8061673   4.4691673  59.6726993   3.5491673   9.8951673
  60.3506993   3.5671673   9.3461673  59.6276993   2.7131673  10.1401673
  59.7656993   3.4281673   9.8501673  60.2746993  14.1351673  12.6761673
  60.4126993  14.8951673  12.2691673  61.0656993  13.7701673  12.7031673
  60.4116993  14.1941673  12.6201673  57.1656993   6.0391673   4.5711673
  57.9826993   5.8521673   4.8141673  56.6886993   5.4251673   4.9671673
  57.2156993   5.9211673   4.6661673  61.3696993  12.0201673   7.1811673
  61.7176993  11.2211673   7.2111673  62.0346993  12.5241673   6.9261673
  61.5196993  11.9761673   7.1481673  61.4266993  11.4691673   3.3921673
  61.7576993  10.8251673   3.8781673  61.6666993  11.2581673   2.5811673
  61.5106993  11.3431673   3.3441673  63.3946993   5.6001673  14.7311673
  62.5466993   5.5011673  14.5531673  63.4236993   6.3451673  15.1851673
  63.2736993   5.6961673  14.7721673  53.6206993   5.7001673   7.5611673
  53.3646993   6.5311673   7.4861673  52.9566993   5.3171673   7.9781673
  53.4846993   5.7661673   7.6121673  53.5306993  15.4101673   5.4611673
  52.9386993  15.9681673   5.1481673  53.9566993  15.1411673   4.7491673
  53.5066993  15.4521673   5.3101673  59.3706993  13.2541673   2.9411673
  58.7916993  12.9791673   3.5331673  59.9946993  12.6451673   2.9661673
  59.3776993  13.1241673   3.0321673  63.6816993  15.9341673   2.4531673
  63.8956993  16.4611673   3.1151673  64.4486993  15.7601673   2.0741673
  63.8266993  15.9861673   2.4951673  59.9556993   2.6501673  17.3501673
  60.0726993   2.1961673  16.6141673  60.2436993   3.4481673  17.1471673
  60.0156993   2.7011673  17.2111673  55.0756993  14.0801673   3.3921673
  55.7316993  13.5051673   3.4071673  55.4646993  14.8291673   3.1711673
  55.2306993  14.1051673   3.3621673  55.6886993   2.2471673  16.3341673
  54.9106993   1.8571673  16.2621673  56.1796993   1.8351673  15.7431673
  55.6456993   2.1281673  16.2361673  55.8936993  12.5671673   6.8921673
  56.3166993  12.2111673   6.2181673  56.2176993  12.1451673   7.5841673
  56.0036993  12.4521673   6.8951673  59.1246993  15.4191673   6.1881673
  59.9686993  15.5231673   5.9931673  58.8276993  16.2371673   6.2561673
  59.2056993  15.5551673   6.1691673  62.9316993   4.8161673   4.2751673
  63.2186993   4.5841673   3.4851673  63.6636993   4.8951673   4.7441673
  63.0816993   4.7931673   4.2281673  58.1226993  16.6381673  11.9281673
  58.4146993  16.5711673  12.7481673  57.4966993  16.0331673  11.8831673
  58.0736993  16.5391673  12.0431673  53.0366993   2.7951673  13.9201673
  53.0326993   3.3821673  14.5661673  53.6306993   3.1071673  13.3631673
  53.1236993   2.9281673  13.9331673  65.3746993  13.1291673  14.4621673
  65.3406993  13.5111673  15.2461673  66.2286993  13.0871673  14.2911673
  65.4956993  13.1791673  14.5531673  56.1156993  14.8001673  11.0501673
  55.4176993  14.2921673  11.1761673  56.3756993  14.5951673  10.2421673
  56.0506993  14.6951673  10.9491673  63.8266993  16.2931673  11.9601673
  64.5946993  16.2131673  11.5541673  63.2436993  16.1721673  11.3221673
  63.8536993  16.2631673  11.8061673  61.8756993   2.9061673   5.9931673
  61.9496993   3.4741673   5.3351673  61.9966993   3.3981673   6.7031673
  61.9036993   3.0631673   6.0011673  57.4766993  13.6511673  13.6171673
  58.3176993  13.7141673  13.3951673  57.4396993  14.0481673  14.3931673
  57.5956993  13.7191673  13.6991673  59.4396993   9.1621673   8.3661673
  59.6116993   8.9521673   9.1951673  58.7846993   8.6281673   8.1501673
  59.3686993   9.0521673   8.4571673  65.6676993   3.0761673  11.8811673
  65.5726993   3.3951673  12.6871673  65.0746993   2.4371673  11.8431673
  65.5656993   3.0281673  11.9951673  60.1896993   9.1001673  10.9561673
  60.2426993   9.9471673  11.1581673  59.9046993   8.7301673  11.6931673
  60.1556993   9.1701673  11.0941673  66.3666993   9.7951673  10.0861673
  65.8526993   9.3831673  10.6571673  66.2406993  10.6391673  10.2671673
  66.2726993   9.8591673  10.1971673  53.0106993  13.4711673  17.1671673
  53.7666993  13.8201673  17.4251673  53.1876993  12.6181673  17.1101673
  53.1486993  13.3961673  17.1971673  56.9316993   2.5391673   5.9951673
  57.2036993   2.1091673   5.2871673  56.7556993   1.9031673   6.5661673
  56.9456993   2.3821673   5.9751673  56.7556993   9.9661673   5.5441673
  57.6066993   9.8861673   5.3711673  56.3986993   9.2841673   5.1321673
  56.8286993   9.8531673   5.4571673  55.5226993  16.6911673   6.7811673
  54.8496993  16.1931673   6.5361673  55.9256993  16.8761673   6.0301673
  55.4826993  16.6451673   6.6341673  55.0726993   3.6411673   9.0771673
  55.9156993   3.8611673   9.0341673  54.6836993   4.2141673   8.5461673
  55.1396993   3.7581673   8.9921673  59.1236993   9.9731673   3.7791673
  59.8366993  10.4681673   3.8691673  59.3456993   9.4061673   3.1531673
  59.2616993   9.9621673   3.7001673  53.2796993  11.6161673   7.0991673
  52.6126993  12.1041673   7.3751673  53.9596993  12.1611673   7.1281673
  53.2816993  11.7681673   7.1441673  60.9266993   5.3261673  17.1951673
  60.4426993   5.9031673  17.6371673  60.8986993   5.6211673  16.3741673
  60.8506993   5.4551673  17.1391673  53.3456993   8.3001673   2.2021673
  53.1606993   7.4611673   2.3541673  54.0046993   8.2641673   1.6321673
  53.4156993   8.1711673   2.1401673  63.6466993  13.6761673   6.1061673
  63.1236993  14.3101673   5.8131673  63.9566993  13.3121673   5.3771673
  63.6146993  13.7161673   5.9551673  53.5176993  12.4641673   1.7771673
  54.0696993  13.0331673   2.1411673  53.2856993  11.9491673   2.4421673
  53.5646993  12.4721673   1.9291673  57.7216993  11.4641673   8.8661673
  58.1886993  11.7531673   9.5441673  58.2936993  10.9861673   8.4121673
  57.8756993  11.4361673   8.8991673  54.2876993   9.1341673   7.4101673
  54.7186993   9.0051673   6.6631673  54.0826993   9.9821673   7.3841673
  54.3206993   9.2401673   7.2961673  58.3716993  12.6501673   5.6921673
  58.4976993  13.4931673   5.8791673  59.0396993  12.2511673   6.0881673
  58.4896993  12.7161673   5.7781673  56.5016993   6.1331673  15.5541673
  55.9656993   5.6271673  16.0221673  56.5216993   5.7431673  14.7741673
  56.4246993   6.0001673  15.5081673  57.1536993   7.3601673   7.2931673
  56.3726993   7.3011673   6.9101673  57.2256993   6.6081673   7.7301673
  57.0486993   7.2411673   7.3011673  57.5836993   7.0971673  10.7611673
  57.6086993   6.4221673  10.2101673  56.9376993   7.5931673  10.4491673
  57.4926993   7.0701673  10.6341673  61.6836993  15.8741673  10.1531673
  61.4066993  15.2331673   9.6301673  61.4756993  16.6001673   9.7151673
  61.6126993  15.8871673  10.0111673  65.6716993   2.7791673   2.6681673
  66.1616993   3.4961673   2.5911673  64.8816993   3.0401673   2.4051673
  65.6276993   2.9231673   2.6181673  55.3826993   8.4521673  16.3201673
  55.3456993   8.9531673  15.6061673  55.7136993   7.7001673  16.0251673
  55.4256993   8.4141673  16.1711673  61.2816993  13.5021673  15.7551673
  61.6356993  13.3241673  16.5321673  60.8456993  12.7731673  15.5561673
  61.2696993  13.3681673  15.8411673  62.2536993   4.2491673   8.3931673
  62.7336993   4.9481673   8.6011673  62.6266993   3.6021673   8.8441673
  62.3796993   4.2571673   8.4901673  65.4596993  14.3541673   8.4921673
  64.8566993  14.0581673   7.9351673  66.0046993  14.8061673   7.9831673
  65.4506993  14.3771673   8.3341673  65.4726993  11.2051673   7.8921673
  64.6756993  11.4291673   8.1661673  65.7306993  10.6111673   8.4771673
  65.3926993  11.1501673   8.0191673  59.3646993  16.0171673   2.3401673
  59.2176993  15.2411673   2.7111673  60.0536993  15.8701673   1.8251673
  59.4446993  15.8801673   2.3191673  64.9236993  14.5521673  17.0151673
  65.0876993  14.8351673  17.8241673  65.1866993  15.2131673  16.5101673
  64.9866993  14.6921673  17.0601673  64.4636993   9.0091673  12.3381673
  64.3086993   9.6191673  12.9421673  64.9976993   8.4511673  12.7441673
  64.5196993   9.0171673  12.4871673  62.8476993   7.4091673   2.9961673
  62.9066993   8.0591673   3.5751673  62.6586993   6.7131673   3.4871673
  62.8286993   7.4021673   3.1541673  62.0706993   9.4561673   7.4271673
  61.2236993   9.2621673   7.5081673  62.3946993   9.2911673   8.2201673
  61.9926993   9.4031673   7.5561673  55.9186993   9.1491673   9.7431673
  56.6406993   9.6371673   9.7061673  55.6486993   9.1191673   8.9141673
  55.9856993   9.2171673   9.6151673  59.1486993   4.3201673   6.4781673
  59.9946993   4.1301673   6.5761673  58.7786993   3.5431673   6.3401673
  59.2186993   4.1771673   6.4721673  53.9696993   5.6581673   3.1331673
  54.4586993   5.3661673   3.7941673  54.0986993   5.0651673   2.5061673
  54.0606993   5.5271673   3.1381673  55.3136993  10.2011673  14.0211673
  54.8926993   9.6831673  13.4601673  54.9616993  10.9871673  13.8781673
  55.1996993  10.2411673  13.9171673  60.0526993  12.0121673  10.6391673
  59.7546993  12.6041673  11.2061673  60.1076993  12.4541673   9.8901673
  60.0166993  12.1651673  10.6121673  58.0316993  10.9621673  14.0371673
  57.2256993  10.6721673  14.2041673  57.9426993  11.8301673  14.0431673
  57.8996993  11.0471673  14.0621673  62.5686993   8.4351673  10.1301673
  63.0446993   8.8091673  10.7581673  61.7456993   8.5691673  10.3891673
  62.5176993   8.5101673  10.2611673  59.2786993   4.0381673  12.8711673
  59.4396993   3.2941673  13.2981673  59.2336993   3.7891673  12.0361673
  59.2956993   3.8911673  12.8111673  61.8326993  15.8281673   5.3581673
  62.3786993  16.5071673   5.4121673  61.4826993  15.9101673   4.5631673
  61.8616993  15.9411673   5.2481673  60.0156993  14.0561673   8.7471673
  59.3916993  14.6381673   8.5651673  60.2636993  13.7701673   7.9611673
  59.9596993  14.1001673   8.6041673  64.3246993  10.6901673  15.7361673
  65.0816993  10.9761673  15.4101673  63.7776993  10.7421673  15.0581673
  64.3556993  10.7401673  15.5871673  57.5396993   4.8991673   8.8121673
  57.9796993   4.7961673   8.0661673  58.0846993   4.5861673   9.4171673
  57.6846993   4.8381673   8.7911673  65.5556993   4.0011673  14.4041673
  64.9076993   4.4711673  14.7521673  66.1206993   3.9121673  15.0631673
  65.5436993   4.0571673  14.5531673  65.2436993   5.5381673  10.7021673
  65.5456993   5.9581673  11.4051673  65.2796993   4.6981673  10.9341673
  65.2936993   5.4761673  10.8401673  62.6686993  15.7051673  14.6271673
  63.1466993  15.1051673  14.2111673  62.3176993  15.2621673  15.2921673
  62.6876993  15.5511673  14.6641673  62.7276993  10.9241673  13.6471673
  61.9326993  10.8601673  13.9981673  62.7986993  11.7711673  13.4521673
  62.6206993  11.0391673  13.6701673  58.5576993  17.1311673   8.9641673
  58.5686993  17.1901673   9.8341673  58.1326993  16.3841673   8.8141673
  58.4966993  17.0291673   9.0701673  65.4726993  10.1791673   5.1631673
  65.5486993  10.5201673   5.9621673  65.6416993   9.3321673   5.2841673
  65.5086993  10.1041673   5.2991673  62.9946993   9.4531673   4.7281673
  62.6966993   9.1381673   5.4851673  63.6896993   9.9261673   4.9631673
  63.0536993   9.4761673   4.8751673  63.2166993  13.5711673  12.7551673
  63.9036993  13.4571673  13.2801673  63.3506993  14.3621673  12.4111673
  63.3376993  13.6711673  12.7821673  55.3216993  16.6291673  14.4061673
  54.6676993  16.0601673  14.5041673  54.9466993  17.4021673  14.5571673
  55.1696993  16.6591673  14.4431673  63.8396993   8.0351673  16.3291673
  64.1626993   8.7211673  15.8971673  63.1356993   8.3581673  16.7311673
  63.7826993   8.1841673  16.3241673  63.6246993  11.4991673  10.1881673
  62.9306993  11.9011673  10.5311673  64.3016993  11.9321673  10.5271673
  63.6216993  11.6221673  10.2891673  56.6926993   5.0371673  12.5351673
  57.0676993   5.6561673  12.0481673  57.3666993   4.5631673  12.8201673
  56.8476993   5.0591673  12.5051673  54.4676993   3.4851673  11.8101673
  54.5446993   3.3161673  10.9571673  55.2136993   3.8911673  12.0071673
  54.5886993   3.5201673  11.7131673  63.9466993  13.0901673   3.3571673
  63.7416993  13.9231673   3.1981673  63.1716993  12.7081673   3.4791673
  63.8016993  13.1571673   3.3521673  53.8646993   8.7111673  12.0341673
  54.1846993   8.9301673  11.2531673  53.7646993   7.8461673  11.9791673
  53.8966993   8.6161673  11.9111673  58.6276993   8.0031673  13.4191673
  58.2316993   8.7771673  13.4941673  58.2216993   7.6301673  12.7431673
  58.5096993   8.0621673  13.3301673  65.8916993  12.5761673  11.0311673
  66.0976993  12.8771673  11.8231673  65.8306993  13.2981673  10.5461673
  65.9126993  12.7271673  11.0761673  65.4256993  16.7901673  15.2771673
  64.6726993  16.7721673  14.8361673  65.5936993  17.6421673  15.3611673
  65.3396993  16.9131673  15.2241673  60.6626993   6.0571673  14.4471673
  60.3406993   5.4811673  13.8771673  60.3036993   6.8121673  14.2011673
  60.5626993   6.0831673  14.3271673  59.0976993  16.4131673  14.6951673
  59.1386993  16.5391673  15.5581673  59.7486993  15.8531673  14.5391673
  59.1996993  16.3491673  14.8001673  56.6906993  14.7961673  16.0551673
  57.2856993  15.2271673  16.5271673  56.3266993  15.4201673  15.5661673
  56.7246993  14.9521673  16.0521673  64.6816993   5.7271673   5.9871673
  65.2326993   5.1201673   6.2871673  64.2566993   5.9901673   6.7021673
  64.7006993   5.6761673   6.1361673  54.9296993   4.3771673   5.4731673
  54.5616993   4.6791673   6.2041673  55.4636993   3.7481673   5.7571673
  54.9536993   4.3291673   5.6231673  54.6176993  12.7851673  12.9841673
  54.0436993  13.2011673  13.4931673  55.3506993  13.2501673  13.0791673
  54.6416993  12.9151673  13.0731673  57.0906993  14.8671673   8.2361673
  57.0116993  14.0571673   7.9201673  56.6466993  15.3541673   7.6641673
  57.0136993  14.8191673   8.1051673  54.6626993  17.1111673  11.8171673
  55.1556993  17.0551673  12.5351673  54.8506993  16.3781673  11.3821673
  54.7636993  16.9941673  11.8591673  45.2358553  55.0614913  79.9891313
  44.9908553  55.5494913  79.3091313  46.0988553  54.9884913  79.8891313
  45.3268553  55.1224913  79.8741313  45.0448553  61.9774913  84.6601313
  44.5208553  62.5734913  85.0231313  45.4418553  61.6094913  85.3441313
  45.0258553  62.0114913  84.8151313  34.9138553  66.1174913  80.1161313
  34.4728553  66.2354913  80.8591313  34.6308553  65.3424913  79.8311313
  34.8068553  66.0204913  80.1841313  51.1888553  69.4184913  77.6311313
  51.8898553  68.8994913  77.6271313  50.6018553  68.9734913  77.1621313
  51.2058553  69.2754913  77.5611313  34.6568553  59.9094913  76.6231313
  33.8788553  60.0714913  76.2631313  34.6958553  59.0384913  76.6451313
  34.5478553  59.8044913  76.5731313  37.7958553  65.1724913  75.2951313
  37.4038553  64.8014913  74.6091313  37.7158553  64.5744913  75.9241313
  37.7258553  65.0294913  75.2861313  47.7158553  63.0444913  81.3361313
  47.7958553  63.0484913  80.4671313  47.1318553  62.4124913  81.4851313
  47.6408553  62.9514913  81.2301313  37.4228553  66.8134913  79.1951313
  38.0308553  66.6434913  79.7981313  36.6718553  66.6734913  79.6161313
  37.4018553  66.7674913  79.3461313  41.7048553  56.1484913  79.1441313
  41.6348553  56.8254913  78.5981313  42.4458553  55.7604913  78.8951313
  41.8038553  56.1914913  79.0261313  36.3138553  69.9044913  75.2721313
  36.7808553  69.9884913  74.5401313  36.7688553  69.3264913  75.7411313
  36.4498553  69.8314913  75.2331313  34.8538553  68.8524913  86.3711313
  34.9828553  68.5724913  87.1871313  34.2438553  68.3114913  86.0621313
  34.7828553  68.7314913  86.4461313  36.2998553  63.3734913  80.5731313
  35.8378553  62.9814913  79.9461313  36.9998553  62.8604913  80.6651313
  36.3348553  63.2404913  80.4941313  40.8078553  58.9834913  85.9201313
  41.4858553  59.0014913  85.3711313  40.7628553  58.1474913  86.1651313
  40.9008553  58.8624913  85.8751313  38.3008553  61.4734913  80.5961313
  39.1178553  61.2864913  80.8391313  37.8238553  60.8594913  80.9921313
  38.3508553  61.3554913  80.6911313  42.5048553  67.4544913  83.2061313
  42.8528553  66.6554913  83.2361313  43.1698553  67.9584913  82.9511313
  42.6548553  67.4104913  83.1731313  42.5618553  66.9034913  79.4171313
  42.8928553  66.2594913  79.9031313  42.8018553  66.6924913  78.6061313
  42.6458553  66.7774913  79.3691313  38.8978553  56.5674913  79.8621313
  38.6018553  57.0684913  79.2121313  39.7648553  56.6454913  79.8051313
  38.9818553  56.6534913  79.7581313  41.8768553  55.7094913  82.0851313
  41.9498553  56.5694913  82.2141313  41.8388553  55.6344913  81.2171313
  41.8818553  55.8254913  81.9761313  46.5498553  58.6354913  74.3841313
  46.0998553  59.3164913  74.6911313  46.6638553  58.1314913  75.0871313
  46.5008553  58.6614913  74.5331313  34.7558553  61.1344913  83.5861313
  34.4998553  61.9654913  83.5111313  34.0918553  60.7514913  84.0031313
  34.6198553  61.2004913  83.6371313  40.5058553  68.6884913  78.9661313
  39.9268553  68.4134913  79.5581313  41.1298553  68.0794913  78.9911313
  40.5128553  68.5584913  79.0571313  37.7848553  55.9514913  84.0771313
  37.2638553  55.3234913  83.7691313  38.3758553  55.5144913  84.5481313
  37.7958553  55.7934913  84.1011313  51.9438553  58.6084913  80.6791313
  51.5978553  59.2864913  81.1051313  51.3078553  58.0104913  80.6951313
  51.7988553  58.6204913  80.7441313  37.0288553  68.0014913  82.9171313
  37.4518553  67.6454913  82.2431313  37.3528553  67.5794913  83.6091313
  37.1388553  67.8864913  82.9201313  44.0668553  60.2504913  80.3001313
  44.3538553  60.0184913  79.5101313  44.7988553  60.3294913  80.7691313
  44.2168553  60.2274913  80.2531313  44.7888553  60.5894913  75.4211313
  45.0698553  61.3774913  75.6701313  44.0128553  60.7544913  75.0581313
  44.7158553  60.7304913  75.4041313  51.6188553  56.9314913  86.0481313
  52.3758553  57.0034913  85.6201313  51.6818553  56.1584913  86.4471313
  51.7398553  56.8284913  86.0431313  43.6478553  68.7604913  75.2371313
  43.4668553  69.3054913  75.8941313  44.4138553  69.0504913  74.9361313
  43.7338553  68.8844913  75.2901313  47.1548553  56.6564913  76.2911313
  47.6948553  55.9744913  76.3671313  47.2168553  57.0544913  77.0651313
  47.2438553  56.6144913  76.4171313  35.1088553  57.8244913  78.8601313
  34.9948553  56.9604913  78.8911313  34.6338553  58.1184913  79.5301313
  35.0218553  57.7404913  78.9631313  44.4128553  59.0324913  77.6051313
  43.9048553  58.3704913  77.3511313  44.4648553  59.5364913  76.8951313
  44.3458553  59.0094913  77.4631313  44.4128553  55.9734913  77.4961313
  43.9578553  55.5714913  76.8701313  45.1858553  56.1284913  77.1211313
  44.4598553  55.9374913  77.3481313  43.0108553  58.3404913  82.0181313
  43.0848553  58.9084913  81.3601313  43.1318553  58.8324913  82.7281313
  43.0388553  58.4974913  82.0261313  48.2358553  68.1754913  80.4301313
  48.9368553  67.6934913  80.6191313  47.5758553  67.6064913  80.4751313
  48.2418553  68.0204913  80.4641313  37.6188553  54.1634913  80.3661313
  38.1548553  54.8514913  80.3561313  37.6218553  53.8894913  79.5381313
  37.6978553  54.2244913  80.2421313  40.5748553  64.5964913  84.3911313
  40.7468553  64.3864913  85.2201313  39.9198553  64.0624913  84.1751313
  40.5038553  64.4864913  84.4821313  46.8028553  58.5104913  87.9061313
  46.7078553  58.8294913  88.7121313  46.2098553  57.8714913  87.8681313
  46.7008553  58.4624913  88.0201313  41.3248553  64.5344913  86.9811313
  41.3778553  65.3814913  87.1831313  41.0398553  64.1644913  87.7181313
  41.2908553  64.6044913  87.1191313  47.5018553  65.2294913  86.1111313
  46.9878553  64.8174913  86.6821313  47.3758553  66.0734913  86.2921313
  47.4078553  65.2934913  86.2221313  48.0588553  54.4544913  80.7421313
  48.1078553  54.1364913  81.5531313  48.3818553  53.8104913  80.2491313
  48.1138553  54.3124913  80.7891313  50.5228553  58.6904913  89.0501313
  51.2948553  58.4654913  89.3871313  50.0478553  58.9074913  89.7501313
  50.5668553  58.6894913  89.2031313  38.0668553  57.9734913  82.0201313
  38.3388553  57.5434913  81.3121313  37.8908553  57.3374913  82.5911313
  38.0808553  57.8164913  82.0001313  50.7548553  65.6684913  76.2381313
  50.8738553  65.3814913  77.0531313  51.5618553  65.6894913  75.9081313
  50.8908553  65.6294913  76.3101313  37.8908553  65.4004913  81.5691313
  38.7418553  65.3204913  81.3961313  37.5338553  64.7184913  81.1571313
  37.9638553  65.2874913  81.4821313  36.2078553  59.0754913  85.1021313
  37.0508553  59.2954913  85.0591313  35.8188553  59.6484913  84.5711313
  36.2748553  59.1924913  85.0171313  48.6498553  62.2054913  75.8231313
  48.4298553  62.9364913  75.4011313  48.2018553  62.2564913  76.5701313
  48.5508553  62.3204913  75.8711313  40.2588553  65.4074913  79.8041313
  40.9718553  65.9024913  79.8941313  40.4808553  64.8404913  79.1781313
  40.3968553  65.3964913  79.7251313  52.8368553  57.0664913  75.2761313
  52.1748553  56.4984913  75.2991313  52.6438553  57.5784913  74.5961313
  52.7108553  57.0584913  75.1791313  34.4148553  67.0504913  83.1241313
  33.7478553  67.5384913  83.4001313  35.0948553  67.5954913  83.1531313
  34.4168553  67.2024913  83.1691313  53.1598553  61.4444913  87.8321313
  53.3748553  60.6444913  87.5561313  52.3098553  61.5044913  87.6431313
  53.0658553  61.3354913  87.7631313  34.4808553  63.7344913  78.2271313
  34.2958553  62.8954913  78.3791313  35.1398553  63.6984913  77.6571313
  34.5508553  63.6054913  78.1651313  50.8388553  56.6244913  77.5551313
  51.5848553  56.2174913  77.7541313  51.1018553  57.3394913  77.1301313
  50.9878553  56.6704913  77.5221313  44.7818553  69.1104913  82.1311313
  44.2588553  69.7444913  81.8381313  45.0918553  68.7464913  81.4021313
  44.7498553  69.1504913  81.9801313  34.6528553  67.8984913  77.8021313
  35.2048553  68.4674913  78.1661313  34.4208553  67.3834913  78.4671313
  34.6998553  67.9064913  77.9541313  38.8568553  66.8984913  84.8911313
  39.3238553  67.1874913  85.5691313  39.4288553  66.4204913  84.4371313
  39.0108553  66.8704913  84.9241313  47.2928553  58.9124913  82.6281313
  47.6368553  59.0644913  83.4151313  46.8398553  58.1744913  82.7411313
  47.2768553  58.8254913  82.7611313  34.4828553  66.3474913  75.4301313
  35.2388553  65.9154913  75.4881313  34.4978553  66.8794913  76.1211313
  34.5968553  66.3624913  75.5411313  35.4228553  64.5684913  83.4351313
  35.8538553  64.4394913  82.6881313  35.2178553  65.4164913  83.4091313
  35.4558553  64.6744913  83.3211313  41.7688553  58.1324913  77.0851313
  41.7668553  58.0154913  76.2201313  41.5878553  58.9804913  77.1771313
  41.7418553  58.2404913  76.9711313  39.5068553  68.0844913  81.7171313
  39.6328553  68.9274913  81.9041313  40.1748553  67.6854913  82.1131313
  39.6248553  68.1504913  81.8031313  38.1218553  60.9644913  76.7191313
  37.9938553  60.5164913  77.4571313  37.5398553  60.6224913  76.1671313
  38.0168553  60.8474913  76.7471313  38.2888553  62.7944913  83.3181313
  37.5078553  62.7354913  82.9351313  38.3608553  62.0424913  83.7551313
  38.1838553  62.6754913  83.3261313  38.7188553  62.5314913  86.7861313
  38.7438553  61.8564913  86.2351313  38.0728553  63.0274913  86.4741313
  38.6278553  62.5044913  86.6591313  48.6138553  60.2444913  85.1821313
  47.9518553  60.5724913  85.6451313  48.8008553  60.8784913  84.6131313
  48.5438553  60.3864913  85.1661313  45.2588553  56.1504913  88.6111313
  45.4078553  55.3254913  88.3681313  45.6378553  56.2054913  89.3951313
  45.3368553  56.0364913  88.6911313  46.8068553  58.2134913  78.6931313
  47.2968553  58.9304913  78.6161313  46.0168553  58.4744913  78.4301313
  46.7628553  58.3574913  78.6431313  43.3888553  59.6834913  84.4181313
  43.8688553  60.3824913  84.6261313  43.7618553  59.0364913  84.8691313
  43.5148553  59.6914913  84.5151313  45.5778553  62.8524913  76.6921313
  45.5698553  63.5744913  76.2021313  44.9388553  62.9874913  77.2691313
  45.4828553  62.9794913  76.7051313  50.5498553  66.7224913  80.6731313
  50.9058553  66.3724913  81.3881313  50.5418553  66.0614913  80.1031313
  50.6018553  66.5724913  80.6941313  46.6078553  66.6394913  83.9171313
  45.8108553  66.8634913  84.1911313  46.8658553  66.0454913  84.5021313
  46.5278553  66.5844913  84.0441313  40.1708553  55.1944913  76.3531313
  40.2678553  55.0874913  77.2141313  39.4628553  55.7004913  76.2881313
  40.0808553  55.2534913  76.4711313  49.8678553  64.6374913  88.7631313
  49.9228553  64.7624913  87.9011313  50.6208553  64.9574913  89.0651313
  49.9868553  64.7024913  88.6801313  37.2928553  63.5014913  77.5961313
  37.6168553  62.7224913  77.3741313  37.9388553  63.8694913  78.0511313
  37.4358553  63.4404913  77.6301313  45.5988553  64.4434913  88.3631313
  45.4438553  65.0534913  88.9671313  46.1328553  63.8854913  88.7691313
  45.6548553  64.4514913  88.5121313  34.2898553  55.1624913  78.5641313
  34.4188553  54.4544913  78.0721313  33.9228553  54.8444913  79.2891313
  34.2548553  55.0104913  78.5991313  43.9828553  62.8434913  79.0211313
  44.0418553  63.4934913  79.6001313  43.7938553  62.1474913  79.5121313
  43.9638553  62.8364913  79.1791313  49.2088553  67.1724913  84.8901313
  48.7298553  67.4704913  84.2241313  48.8528553  66.3964913  85.0681313
  49.0858553  67.1014913  84.8181313  38.4788553  57.3604913  75.5331313
  37.9678553  57.4134913  74.8271313  39.2628553  57.6004913  75.2371313
  38.5188553  57.4034913  75.3851313  43.2058553  64.8904913  83.4521313
  42.3588553  64.6964913  83.5331313  43.5298553  64.7254913  84.2451313
  43.1278553  64.8374913  83.5811313  37.0538553  64.5834913  85.7681313
  37.7758553  65.0714913  85.7311313  36.7838553  64.5534913  84.9391313
  37.1208553  64.6514913  85.6401313  40.2838553  59.7544913  82.5031313
  41.1298553  59.5644913  82.6011313  39.9138553  58.9774913  82.3651313
  40.3538553  59.6114913  82.4971313  35.1048553  61.0924913  79.1581313
  35.5938553  60.8004913  79.8191313  35.2338553  60.4994913  78.5311313
  35.1958553  60.9614913  79.1631313  50.1398553  64.1144913  86.0091313
  50.1328553  63.3384913  86.4071313  49.2988553  64.3484913  86.0021313
  50.0148553  64.0344913  86.0671313  39.6298553  62.5264913  74.6441313
  39.0198553  62.1214913  75.1181313  39.2438553  62.6444913  73.8711313
  39.4828553  62.4834913  74.6001313  36.4488553  65.6354913  90.0461313
  36.0278553  65.1174913  89.4851313  36.0968553  66.4214913  89.9031313
  36.3348553  65.6754913  89.9421313  51.3958553  64.1854913  83.4461313
  51.1098553  64.5864913  84.1661313  52.2558553  64.1234913  83.5731313
  51.4808553  64.2354913  83.5711313  41.0848553  60.9874913  77.3541313
  41.3568553  61.8134913  77.4211313  40.2218553  61.0624913  77.2581313
  40.9978553  61.1204913  77.3491313  34.5648553  56.9574913  83.8901313
  34.6088553  57.3014913  83.0891313  35.3198553  57.1944913  84.2571313
  34.6828553  57.0434913  83.8261313  52.5268553  69.8184913  83.9751313
  52.8168553  70.0754913  83.1941313  53.2218553  69.9144913  84.4941313
  52.6728553  69.8704913  83.9361313  49.1318553  68.4214913  75.9571313
  49.4658553  67.6154913  75.9921313  48.3768553  68.3494913  76.3871313
  49.0698553  68.2914913  76.0261313  49.6138553  60.2554913  81.6161313
  48.8688553  59.9324913  81.9341313  49.6158553  61.0814913  81.8961313
  49.5038553  60.3294913  81.7041313  52.0538553  66.2154913  89.3681313
  52.6818553  65.6664913  89.1121313  51.9928553  66.7804913  88.7061313
  52.1378553  66.2184913  89.2321313  46.5058553  66.2964913  75.3601313
  47.1898553  65.7824913  75.1911313  46.0888553  66.3424913  74.5951313
  46.5448553  66.2274913  75.2221313  41.1878553  67.4464913  86.6641313
  40.8898553  68.0384913  87.2311313  41.2428553  67.8884913  85.9151313
  41.1518553  67.5994913  86.6371313  48.5258553  56.5854913  89.0771313
  49.2698553  57.0374913  89.0141313  47.9598553  57.0554913  88.6081313
  48.5528553  56.7224913  88.9991313  43.7038553  63.8694913  86.1551313
  44.1798553  64.2434913  86.7831313  42.8808553  64.0034913  86.4141313
  43.6528553  63.9444913  86.2861313  40.4138553  59.4724913  88.8961313
  40.5748553  58.7284913  89.3231313  40.3688553  59.2234913  88.0611313
  40.4308553  59.3254913  88.8361313  49.8108553  54.5654913  86.7471313
  49.5308553  55.3904913  86.7031313  50.5268553  54.6184913  87.2431313
  49.8758553  54.6954913  86.8141313  42.1658553  55.2804913  88.7761313
  42.8708553  55.6004913  88.3741313  42.4068553  54.4734913  89.0031313
  42.3048553  55.2084913  88.7501313  41.1508553  69.4904913  84.7721313
  40.5268553  70.0724913  84.5901313  41.3988553  69.2044913  83.9861313
  41.0948553  69.5344913  84.6291313  51.2318553  60.8204913  75.6041313
  51.6098553  61.4974913  75.2041313  50.3898553  61.0444913  75.6351313
  51.1628553  60.9534913  75.5491313  42.7448553  64.2664913  74.6871313
  41.9398553  64.0894913  74.4021313  42.7118553  65.1174913  74.8791313
  42.6208553  64.3654913  74.6741313  38.6748553  60.3334913  84.8371313
  39.1148553  60.2304913  84.0911313  39.2198553  60.0204913  85.4421313
  38.8198553  60.2724913  84.8161313  46.3788553  60.9724913  86.7271313
  46.6808553  61.3924913  87.4301313  46.4148553  60.1324913  86.9591313
  46.4288553  60.9104913  86.8651313  48.9268553  60.4194913  78.9791313
  49.1338553  60.2184913  79.8031313  49.6828553  60.6874913  78.6371313
  49.0688553  60.4294913  79.0501313  42.2218553  55.3184913  84.8841313
  41.3958553  55.1694913  85.1211313  42.1818553  55.3534913  84.0131313
  42.0938553  55.3014913  84.7901313  49.9488553  56.5024913  80.4531313
  49.2348553  56.0314913  80.6241313  49.7868553  56.8434913  79.6671313
  49.8198553  56.4834913  80.3621313  50.3918553  64.4464913  78.8331313
  50.8678553  63.7174913  78.7851313  49.5708553  64.1604913  78.7571313
  50.3408553  64.2964913  78.8141313  43.8628553  66.3584913  89.6721313
  43.0678553  66.2944913  90.0231313  43.9338553  67.2054913  89.4771313
  43.7558553  66.4734913  89.6951313  37.8508553  58.4604913  78.1441313
  37.9768553  58.1314913  77.3461313  37.0388553  58.2114913  78.3431313
  37.7498553  58.3754913  78.0561313  46.6078553  65.6134913  81.1881313
  46.6838553  65.9544913  81.9871313  46.7768553  64.7664913  81.3091313
  46.6438553  65.5384913  81.3241313  44.1298553  64.8874913  80.7531313
  43.8318553  64.5724913  81.5101313  44.8248553  65.3604913  80.9881313
  44.1888553  64.9104913  80.9001313  44.3518553  69.0054913  88.7801313
  45.0388553  68.8914913  89.3051313  44.4858553  69.7964913  88.4361313
  44.4728553  69.1054913  88.8071313  47.0408553  62.2794913  89.1671313
  46.7858553  61.5604913  89.5891313  47.8618553  62.3954913  89.4371313
  47.1248553  62.1904913  89.2691313  44.7598553  66.9334913  86.2131313
  44.0658553  67.3354913  86.5561313  45.4368553  67.3664913  86.5521313
  44.7568553  67.0564913  86.3141313  37.8278553  60.4714913  88.5601313
  38.2028553  61.0904913  88.0731313  38.5018553  59.9974913  88.8451313
  37.9828553  60.4934913  88.5301313  35.6028553  58.9194913  87.8351313
  35.6798553  58.7504913  86.9821313  36.3488553  59.3254913  88.0321313
  35.7238553  58.9544913  87.7381313  51.1618553  61.5594913  78.2751313
  51.2648553  61.5014913  77.4111313  51.9028553  61.2274913  78.5931313
  51.2868553  61.5024913  78.1941313  45.0818553  68.5244913  79.3821313
  44.8768553  69.3574913  79.2231313  44.3068553  68.1424913  79.5041313
  44.9368553  68.5914913  79.3771313  50.2638553  61.7054913  87.6311313
  50.2618553  60.8424913  87.7551313  50.3308553  62.0294913  88.4381313
  50.2738553  61.6254913  87.7681313  34.9998553  64.1454913  88.0591313
  35.3198553  64.3644913  87.2781313  34.8998553  63.2804913  88.0041313
  35.0318553  64.0504913  87.9361313  36.4558553  60.0814913  74.6771313
  35.7838553  60.0954913  75.2331313  36.5508553  59.2334913  74.4931313
  36.3708553  59.9584913  74.7321313  45.1368553  56.6954913  82.2671313
  44.4368553  57.2134913  82.2111313  45.1748553  56.3154913  81.4831313
  45.0388553  56.7164913  82.1431313  40.4438553  68.7864913  75.7911313
  40.8848553  68.8664913  76.5391313  39.6388553  68.5704913  76.0491313
  40.3898553  68.7664913  75.9401313  48.7348553  57.2114913  85.0671313
  49.5898553  57.3104913  85.2121313  48.3658553  57.7644913  85.6321313
  48.8068553  57.3084913  85.1721313  39.7628553  63.4374913  89.4441313
  39.3668553  64.2114913  89.5191313  39.3568553  63.0644913  88.7681313
  39.6448553  63.4964913  89.3551313  49.0388553  62.4914913  83.5581313
  49.7048553  63.0324913  83.7181313  48.6938553  62.8024913  82.8191313
  49.0858553  62.6174913  83.4731313  37.7728553  67.8564913  76.3921313
  37.5288553  67.5494913  77.1721313  37.7398553  67.1534913  75.8761313
  37.7318553  67.7074913  76.4311313  40.5918553  66.1014913  75.1351313
  39.7738553  65.8334913  75.2751313  40.5638553  66.9534913  75.3201313
  40.4668553  66.1884913  75.1831313  40.1918553  56.4144913  86.8941313
  39.3278553  56.4984913  86.9741313  40.4118553  55.9004913  87.5631313
  40.0968553  56.3514913  87.0051313  52.2098553  55.0494913  88.2231313
  52.1578553  55.0054913  89.0931313  52.8968553  54.5464913  88.0331313
  52.3038553  54.9694913  88.3231313  44.2948553  57.1624913  85.2681313
  43.5578553  56.7084913  85.3811313  44.8658553  56.7604913  85.7911313
  44.2698553  57.0354913  85.3621313  47.0268553  68.0104913  87.0561313
  47.2328553  68.3114913  87.8481313  46.9658553  68.7324913  86.5711313
  47.0478553  68.1614913  87.1011313  42.5938553  54.7434913  75.0991313
  42.6718553  54.9904913  74.2661313  41.8508553  55.1204913  75.3571313
  42.4958553  54.8354913  75.0141313  51.8388553  66.6494913  86.5141313
  51.8068553  65.7874913  86.3791313  51.1458553  66.9514913  86.0801313
  51.7318553  66.5664913  86.4301313  49.9438553  69.9094913  85.3111313
  50.4708553  69.8264913  84.6201313  49.5528553  69.1314913  85.3651313
  49.9638553  69.7824913  85.2171313  37.4118553  56.4974913  87.5421313
  37.0688553  55.7304913  87.3081313  36.7168553  57.0214913  87.6061313
  37.2588553  56.4614913  87.5171313  46.4578553  55.3534913  84.5191313
  47.1278553  55.8974913  84.6461313  45.9548553  55.7774913  83.9461313
  46.4828553  55.4964913  84.4531313  45.8168553  61.1614913  82.0121313
  46.3678553  60.5544913  82.3121313  45.3918553  61.4244913  82.7271313
  45.8358553  61.1104913  82.1611313  36.0648553  59.8114913  81.4981313
  35.6968553  60.1134913  82.2291313  36.5988553  59.1824913  81.7821313
  36.0888553  59.7634913  81.6481313  35.7528553  68.2194913  89.0091313
  35.1788553  68.6354913  89.5181313  36.4858553  68.6844913  89.1041313
  35.7768553  68.3494913  89.0981313  47.7868553  62.9924913  78.5741313
  47.8548553  62.1424913  78.7551313  46.9638553  63.0784913  78.2961313
  47.6748553  62.8794913  78.5601313  41.7058553  63.8834913  77.5121313
  41.8058553  64.0224913  76.6571313  42.5238553  63.8234913  77.8081313
  41.8408553  63.8944913  77.4291313  46.9408553  68.2124913  77.3141313
  46.6898553  68.0844913  78.1401313  46.6238553  67.5174913  76.8931313
  46.8568553  68.0914913  77.3741313  51.5848553  59.8704913  85.4341313
  50.7518553  60.1204913  85.3621313  51.5288553  59.0304913  85.6631313
  51.4538553  59.7834913  85.4571313  43.8268553  66.4204913  76.7441313
  44.5438553  66.0734913  76.3881313  43.7928553  67.2204913  76.3961313
  43.9278553  66.4874913  76.6401313  45.2358553  55.0614913  60.9828903
  44.9908553  55.5494913  60.3028903  46.0988553  54.9884913  60.8828903
  45.3268553  55.1224913  60.8678903  45.0448553  61.9774913  65.6538903
  44.5208553  62.5734913  66.0168903  45.4418553  61.6094913  66.3378903
  45.0258553  62.0114913  65.8088903  34.9138553  66.1174913  61.1098903
  34.4728553  66.2354913  61.8528903  34.6308553  65.3424913  60.8248903
  34.8068553  66.0204913  61.1778903  51.1888553  69.4184913  58.6248903
  51.8898553  68.8994913  58.6208903  50.6018553  68.9734913  58.1558903
  51.2058553  69.2754913  58.5548903  34.6568553  59.9094913  57.6168903
  33.8788553  60.0714913  57.2568903  34.6958553  59.0384913  57.6388903
  34.5478553  59.8044913  57.5668903  37.7958553  65.1724913  56.2888903
  37.4038553  64.8014913  55.6028903  37.7158553  64.5744913  56.9178903
  37.7258553  65.0294913  56.2798903  47.7158553  63.0444913  62.3298903
  47.7958553  63.0484913  61.4608903  47.1318553  62.4124913  62.4788903
  47.6408553  62.9514913  62.2238903  37.4228553  66.8134913  60.1888903
  38.0308553  66.6434913  60.7918903  36.6718553  66.6734913  60.6098903
  37.4018553  66.7674913  60.3398903  41.7048553  56.1484913  60.1378903
  41.6348553  56.8254913  59.5918903  42.4458553  55.7604913  59.8888903
  41.8038553  56.1914913  60.0198903  36.3138553  69.9044913  56.2658903
  36.7808553  69.9884913  55.5338903  36.7688553  69.3264913  56.7348903
  36.4498553  69.8314913  56.2268903  34.8538553  68.8524913  67.3648903
  34.9828553  68.5724913  68.1808903  34.2438553  68.3114913  67.0558903
  34.7828553  68.7314913  67.4398903  41.4278553  66.3774913  72.4318903
  41.1918553  66.3744913  73.2718903  40.6798553  66.2294913  72.0078903
  41.2818553  66.3544913  72.4928903  36.2998553  63.3734913  61.5668903
  35.8378553  62.9814913  60.9398903  36.9998553  62.8604913  61.6588903
  36.3348553  63.2404913  61.4878903  40.8078553  58.9834913  66.9138903
  41.4858553  59.0014913  66.3648903  40.7628553  58.1474913  67.1588903
  40.9008553  58.8624913  66.8688903  38.3008553  61.4734913  61.5898903
  39.1178553  61.2864913  61.8328903  37.8238553  60.8594913  61.9858903
  38.3508553  61.3554913  61.6848903  42.5048553  67.4544913  64.1998903
  42.8528553  66.6554913  64.2298903  43.1698553  67.9584913  63.9448903
  42.6548553  67.4104913  64.1668903  42.5618553  66.9034913  60.4108903
  42.8928553  66.2594913  60.8968903  42.8018553  66.6924913  59.5998903
  42.6458553  66.7774913  60.3628903  44.5298553  61.0344913  71.7498903
  43.6818553  60.9354913  71.5718903  44.5588553  61.7794913  72.2038903
  44.4088553  61.1304913  71.7908903  38.8978553  56.5674913  60.8558903
  38.6018553  57.0684913  60.2058903  39.7648553  56.6454913  60.7988903
  38.9818553  56.6534913  60.7518903  49.0878553  53.9944913  70.8638903
  48.9298553  54.7634913  70.4818903  48.3158553  53.7744913  71.2078903
  48.9498553  54.0754913  70.8588903  41.8768553  55.7094913  63.0788903
  41.9498553  56.5694913  63.2078903  41.8388553  55.6344913  62.2108903
  41.8818553  55.8254913  62.9698903  46.5498553  58.6354913  55.3778903
  46.0998553  59.3164913  55.6848903  46.6638553  58.1314913  56.0808903
  46.5008553  58.6614913  55.5268903  34.7558553  61.1344913  64.5798903
  34.4998553  61.9654913  64.5048903  34.0918553  60.7514913  64.9968903
  34.6198553  61.2004913  64.6308903  40.5058553  68.6884913  59.9598903
  39.9268553  68.4134913  60.5518903  41.1298553  68.0794913  59.9848903
  40.5128553  68.5584913  60.0508903  37.7848553  55.9514913  65.0708903
  37.2638553  55.3234913  64.7628903  38.3758553  55.5144913  65.5418903
  37.7958553  55.7934913  65.0948903  41.0908553  58.0844913  74.3688903
  41.2078553  57.6304913  73.6328903  41.3788553  58.8824913  74.1658903
  41.1508553  58.1354913  74.2298903  51.9438553  58.6084913  61.6728903
  51.5978553  59.2864913  62.0988903  51.3078553  58.0104913  61.6888903
  51.7988553  58.6204913  61.7378903  36.8238553  57.6814913  73.3528903
  36.0458553  57.2914913  73.2808903  37.3148553  57.2694913  72.7618903
  36.7808553  57.5624913  73.2548903  37.0288553  68.0014913  63.9108903
  37.4518553  67.6454913  63.2368903  37.3528553  67.5794913  64.6028903
  37.1388553  67.8864913  63.9138903  43.4728553  55.3244913  72.5208903
  43.6508553  54.5154913  72.2458903  43.3298553  55.7654913  71.7818903
  43.4778553  55.2704913  72.3708903  44.0668553  60.2504913  61.2938903
  44.3538553  60.0184913  60.5038903  44.7988553  60.3294913  61.7628903
  44.2168553  60.2274913  61.2468903  44.7888553  60.5894913  56.4148903
  45.0698553  61.3774913  56.6638903  44.0128553  60.7544913  56.0518903
  44.7158553  60.7304913  56.3978903  51.6188553  56.9314913  67.0418903
  52.3758553  57.0034913  66.6138903  51.6818553  56.1584913  67.4408903
  51.7398553  56.8284913  67.0368903  34.1718553  58.2294913  70.9388903
  34.1678553  58.8164913  71.5848903  34.7658553  58.5414913  70.3818903
  34.2588553  58.3624913  70.9518903  46.5098553  68.5634913  71.4808903
  46.4758553  68.9454913  72.2648903  47.3638553  68.5214913  71.3098903
  46.6308553  68.6134913  71.5718903  43.6478553  68.7604913  56.2308903
  43.4668553  69.3054913  56.8878903  44.4138553  69.0504913  55.9298903
  43.7338553  68.8844913  56.2838903  47.1548553  56.6564913  57.2848903
  47.6948553  55.9744913  57.3608903  47.2168553  57.0544913  58.0588903
  47.2438553  56.6144913  57.4108903  35.1088553  57.8244913  59.8538903
  34.9948553  56.9604913  59.8848903  34.6338553  58.1184913  60.5238903
  35.0218553  57.7404913  59.9568903  44.4128553  59.0324913  58.5988903
  43.9048553  58.3704913  58.3448903  44.4648553  59.5364913  57.8888903
  44.3458553  59.0094913  58.4568903  44.4128553  55.9734913  58.4898903
  43.9578553  55.5714913  57.8638903  45.1858553  56.1284913  58.1148903
  44.4598553  55.9374913  58.3418903  43.0108553  58.3404913  63.0118903
  43.0848553  58.9084913  62.3538903  43.1318553  58.8324913  63.7218903
  43.0388553  58.4974913  63.0198903  48.2358553  68.1754913  61.4238903
  48.9368553  67.6934913  61.6128903  47.5758553  67.6064913  61.4688903
  48.2418553  68.0204913  61.4578903  38.6118553  69.0854913  70.6358903
  39.4528553  69.1484913  70.4138903  38.5748553  69.4824913  71.4118903
  38.7308553  69.1534913  70.7178903  37.6188553  54.1634913  61.3598903
  38.1548553  54.8514913  61.3498903  37.6218553  53.8894913  60.5318903
  37.6978553  54.2244913  61.2358903  40.5748553  64.5964913  65.3848903
  40.7468553  64.3864913  66.2138903  39.9198553  64.0624913  65.1688903
  40.5038553  64.4864913  65.4758903  46.8028553  58.5104913  68.8998903
  46.7078553  58.8294913  69.7058903  46.2098553  57.8714913  68.8618903
  46.7008553  58.4624913  69.0138903  41.3248553  64.5344913  67.9748903
  41.3778553  65.3814913  68.1768903  41.0398553  64.1644913  68.7118903
  41.2908553  64.6044913  68.1128903  47.5018553  65.2294913  67.1048903
  46.9878553  64.8174913  67.6758903  47.3758553  66.0734913  67.2858903
  47.4078553  65.2934913  67.2158903  48.0588553  54.4544913  61.7358903
  48.1078553  54.1364913  62.5468903  48.3818553  53.8104913  61.2428903
  48.1138553  54.3124913  61.7828903  34.1458553  68.9054913  74.1858903
  34.9018553  69.2544913  74.4438903  34.3228553  68.0524913  74.1288903
  34.2838553  68.8304913  74.2158903  50.5228553  58.6904913  70.0438903
  51.2948553  58.4654913  70.3808903  50.0478553  58.9074913  70.7438903
  50.5668553  58.6894913  70.1968903  38.0668553  57.9734913  63.0138903
  38.3388553  57.5434913  62.3058903  37.8908553  57.3374913  63.5848903
  38.0808553  57.8164913  62.9938903  50.7548553  65.6684913  57.2318903
  50.8738553  65.3814913  58.0468903  51.5618553  65.6894913  56.9018903
  50.8908553  65.6294913  57.3038903  37.8908553  65.4004913  62.5628903
  38.7418553  65.3204913  62.3898903  37.5338553  64.7184913  62.1508903
  37.9638553  65.2874913  62.4758903  36.2078553  59.0754913  66.0958903
  37.0508553  59.2954913  66.0528903  35.8188553  59.6484913  65.5648903
  36.2748553  59.1924913  66.0108903  48.6498553  62.2054913  56.8168903
  48.4298553  62.9364913  56.3948903  48.2018553  62.2564913  57.5638903
  48.5508553  62.3204913  56.8648903  40.2588553  65.4074913  60.7978903
  40.9718553  65.9024913  60.8878903  40.4808553  64.8404913  60.1718903
  40.3968553  65.3964913  60.7188903  52.8368553  57.0664913  56.2698903
  52.1748553  56.4984913  56.2928903  52.6438553  57.5784913  55.5898903
  52.7108553  57.0584913  56.1728903  34.4148553  67.0504913  64.1178903
  33.7478553  67.5384913  64.3938903  35.0948553  67.5954913  64.1468903
  34.4168553  67.2024913  64.1628903  42.0618553  60.7604913  74.2138903
  41.5778553  61.3374913  74.6558903  42.0338553  61.0554913  73.3928903
  41.9858553  60.8894913  74.1578903  53.1598553  61.4444913  68.8258903
  53.3748553  60.6444913  68.5498903  52.3098553  61.5044913  68.6368903
  53.0658553  61.3354913  68.7568903  34.4808553  63.7344913  59.2208903
  34.2958553  62.8954913  59.3728903  35.1398553  63.6984913  58.6508903
  34.5508553  63.6054913  59.1588903  50.8388553  56.6244913  58.5488903
  51.5848553  56.2174913  58.7478903  51.1018553  57.3394913  58.1238903
  50.9878553  56.6704913  58.5158903  44.7818553  69.1104913  63.1248903
  44.2588553  69.7444913  62.8318903  45.0918553  68.7464913  62.3958903
  44.7498553  69.1504913  62.9738903  34.6528553  67.8984913  58.7958903
  35.2048553  68.4674913  59.1598903  34.4208553  67.3834913  59.4608903
  34.6998553  67.9064913  58.9478903  38.8568553  66.8984913  65.8848903
  39.3238553  67.1874913  66.5628903  39.4288553  66.4204913  65.4308903
  39.0108553  66.8704913  65.9178903  47.2928553  58.9124913  63.6218903
  47.6368553  59.0644913  64.4088903  46.8398553  58.1744913  63.7348903
  47.2768553  58.8254913  63.7548903  34.4828553  66.3474913  56.4238903
  35.2388553  65.9154913  56.4818903  34.4978553  66.8794913  57.1148903
  34.5968553  66.3624913  56.5348903  35.4228553  64.5684913  64.4288903
  35.8538553  64.4394913  63.6818903  35.2178553  65.4164913  64.4028903
  35.4558553  64.6744913  64.3148903  41.7688553  58.1324913  58.0788903
  41.7668553  58.0154913  57.2138903  41.5878553  58.9804913  58.1708903
  41.7418553  58.2404913  57.9648903  39.5068553  68.0844913  62.7108903
  39.6328553  68.9274913  62.8978903  40.1748553  67.6854913  63.1068903
  39.6248553  68.1504913  62.7968903  37.6368553  61.5674913  72.5728903
  37.1008553  61.0614913  73.0408903  37.6568553  61.1774913  71.7928903
  37.5598553  61.4344913  72.5268903  38.1218553  60.9644913  57.7128903
  37.9938553  60.5164913  58.4508903  37.5398553  60.6224913  57.1608903
  38.0168553  60.8474913  57.7408903  38.2888553  62.7944913  64.3118903
  37.5078553  62.7354913  63.9288903  38.3608553  62.0424913  64.7488903
  38.1838553  62.6754913  64.3198903  38.7188553  62.5314913  67.7798903
  38.7438553  61.8564913  67.2288903  38.0728553  63.0274913  67.4678903
  38.6278553  62.5044913  67.6528903  48.6138553  60.2444913  66.1758903
  47.9518553  60.5724913  66.6388903  48.8008553  60.8784913  65.6068903
  48.5438553  60.3864913  66.1598903  45.2588553  56.1504913  69.6048903
  45.4078553  55.3254913  69.3618903  45.6378553  56.2054913  70.3888903
  45.3368553  56.0364913  69.6848903  46.8068553  58.2134913  59.6868903
  47.2968553  58.9304913  59.6098903  46.0168553  58.4744913  59.4238903
  46.7628553  58.3574913  59.6368903  36.5178553  63.8864913  73.3388903
  36.4808553  64.3874913  72.6248903  36.8488553  63.1344913  73.0438903
  36.5608553  63.8484913  73.1898903  48.1208553  66.0914913  71.5968903
  48.6048553  66.8094913  71.6948903  48.5148553  65.6644913  70.9458903
  48.2508553  66.1344913  71.5148903  42.4168553  68.9364913  72.7738903
  42.7708553  68.7584913  73.5508903  41.9808553  68.2074913  72.5748903
  42.4048553  68.8024913  72.8598903  43.3888553  59.6834913  65.4118903
  43.8688553  60.3824913  65.6198903  43.7618553  59.0364913  65.8628903
  43.5148553  59.6914913  65.5088903  45.5778553  62.8524913  57.6858903
  45.5698553  63.5744913  57.1958903  44.9388553  62.9874913  58.2628903
  45.4828553  62.9794913  57.6988903  50.5498553  66.7224913  61.6668903
  50.9058553  66.3724913  62.3818903  50.5418553  66.0614913  61.0968903
  50.6018553  66.5724913  61.6878903  46.6078553  66.6394913  64.9108903
  45.8108553  66.8634913  65.1848903  46.8658553  66.0454913  65.4958903
  46.5278553  66.5844913  65.0378903  40.1708553  55.1944913  57.3468903
  40.2678553  55.0874913  58.2078903  39.4628553  55.7004913  57.2818903
  40.0808553  55.2534913  57.4648903  49.8678553  64.6374913  69.7568903
  49.9228553  64.7624913  68.8948903  50.6208553  64.9574913  70.0588903
  49.9868553  64.7024913  69.6738903  50.8998553  54.9354913  72.7438903
  50.2628553  54.5354913  72.3018903  50.9258553  54.5044913  73.5018903
  50.8098553  54.8134913  72.7898903  37.2928553  63.5014913  58.5898903
  37.6168553  62.7224913  58.3678903  37.9388553  63.8694913  59.0448903
  37.4358553  63.4404913  58.6238903  45.5988553  64.4434913  69.3568903
  45.4438553  65.0534913  69.9608903  46.1328553  63.8854913  69.7628903
  45.6548553  64.4514913  69.5058903  34.2898553  55.1624913  59.5578903
  34.4188553  54.4544913  59.0658903  33.9228553  54.8444913  60.2828903
  34.2548553  55.0104913  59.5928903  43.9828553  62.8434913  60.0148903
  44.0418553  63.4934913  60.5938903  43.7938553  62.1474913  60.5058903
  43.9638553  62.8364913  60.1728903  49.2088553  67.1724913  65.8838903
  48.7298553  67.4704913  65.2178903  48.8528553  66.3964913  66.0618903
  49.0858553  67.1014913  65.8118903  38.4788553  57.3604913  56.5268903
  37.9678553  57.4134913  55.8208903  39.2628553  57.6004913  56.2308903
  38.5188553  57.4034913  56.3788903  43.2058553  64.8904913  64.4458903
  42.3588553  64.6964913  64.5268903  43.5298553  64.7254913  65.2388903
  43.1278553  64.8374913  64.5748903  37.0538553  64.5834913  66.7618903
  37.7758553  65.0714913  66.7248903  36.7838553  64.5534913  65.9328903
  37.1208553  64.6514913  66.6338903  40.2838553  59.7544913  63.4968903
  41.1298553  59.5644913  63.5948903  39.9138553  58.9774913  63.3588903
  40.3538553  59.6114913  63.4908903  35.1048553  61.0924913  60.1518903
  35.5938553  60.8004913  60.8128903  35.2338553  60.4994913  59.5248903
  35.1958553  60.9614913  60.1568903  50.1398553  64.1144913  67.0028903
  50.1328553  63.3384913  67.4008903  49.2988553  64.3484913  66.9958903
  50.0148553  64.0344913  67.0608903  39.6298553  62.5264913  55.6378903
  39.0198553  62.1214913  56.1118903  39.2438553  62.6444913  54.8648903
  39.4828553  62.4834913  55.5938903  36.4488553  65.6354913  71.0398903
  36.0278553  65.1174913  70.4788903  36.0968553  66.4214913  70.8968903
  36.3348553  65.6754913  70.9358903  51.3958553  64.1854913  64.4398903
  51.1098553  64.5864913  65.1598903  52.2558553  64.1234913  64.5668903
  51.4808553  64.2354913  64.5648903  41.0848553  60.9874913  58.3478903
  41.3568553  61.8134913  58.4148903  40.2218553  61.0624913  58.2518903
  40.9978553  61.1204913  58.3428903  49.0578553  58.1094913  72.9798903
  48.5328553  58.5684913  73.5038903  48.6968553  57.3144913  72.9738903
  48.9268553  58.0594913  73.0558903  34.5648553  56.9574913  64.8838903
  34.6088553  57.3014913  64.0828903  35.3198553  57.1944913  65.2508903
  34.6828553  57.0434913  64.8198903  52.5268553  69.8184913  64.9688903
  52.8168553  70.0754913  64.1878903  53.2218553  69.9144913  65.4878903
  52.6728553  69.8704913  64.9298903  47.5498553  61.6784913  73.0558903
  47.6228553  61.7824913  73.9188903  46.9158553  62.2364913  72.8348903
  47.4668553  61.7764913  73.1508903  49.8178553  61.9974913  71.4208903
  50.1368553  62.7834913  71.6238903  49.4478553  61.7274913  72.1638903
  49.8108553  62.0734913  71.5608903  49.1318553  68.4214913  56.9508903
  49.4658553  67.6154913  56.9858903  48.3768553  68.3494913  57.3808903
  49.0698553  68.2914913  57.0198903  49.6138553  60.2554913  62.6098903
  48.8688553  59.9324913  62.9278903  49.6158553  61.0814913  62.8898903
  49.5038553  60.3294913  62.6978903  52.5158553  62.5394913  74.1558903
  52.4638553  62.1984913  73.3548903  53.2528553  63.0064913  74.1338903
  52.6168553  62.5584913  74.0338903  52.0538553  66.2154913  70.3618903
  52.6818553  65.6664913  70.1058903  51.9928553  66.7804913  69.6998903
  52.1378553  66.2184913  70.2258903  46.5058553  66.2964913  56.3538903
  47.1898553  65.7824913  56.1848903  46.0888553  66.3424913  55.5888903
  46.5448553  66.2274913  56.2158903  41.1878553  67.4464913  67.6578903
  40.8898553  68.0384913  68.2248903  41.2428553  67.8884913  66.9088903
  41.1518553  67.5994913  67.6308903  39.1668553  66.3964913  71.0558903
  38.3608553  66.1064913  71.2228903  39.0778553  67.2644913  71.0618903
  39.0348553  66.4814913  71.0808903  48.5258553  56.5854913  70.0708903
  49.2698553  57.0374913  70.0078903  47.9598553  57.0554913  69.6018903
  48.5528553  56.7224913  69.9928903  43.7038553  63.8694913  67.1488903
  44.1798553  64.2434913  67.7768903  42.8808553  64.0034913  67.4078903
  43.6528553  63.9444913  67.2798903  40.4138553  59.4724913  69.8898903
  40.5748553  58.7284913  70.3168903  40.3688553  59.2234913  69.0548903
  40.4308553  59.3254913  69.8298903  49.8108553  54.5654913  67.7408903
  49.5308553  55.3904913  67.6968903  50.5268553  54.6184913  68.2368903
  49.8758553  54.6954913  67.8078903  42.1658553  55.2804913  69.7698903
  42.8708553  55.6004913  69.3678903  42.4068553  54.4734913  69.9968903
  42.3048553  55.2084913  69.7438903  41.1508553  69.4904913  65.7658903
  40.5268553  70.0724913  65.5838903  41.3988553  69.2044913  64.9798903
  41.0948553  69.5344913  65.6228903  45.4598553  66.1244913  72.7548903
  46.2168553  66.4104913  72.4288903  44.9128553  66.1764913  72.0768903
  45.4908553  66.1744913  72.6058903  49.3688553  68.6744913  71.2588903
  49.7148553  68.9444913  72.0128903  49.6628553  69.2564913  70.6788903
  49.4638553  68.8004913  71.2848903  51.2318553  60.8204913  56.5978903
  51.6098553  61.4974913  56.1978903  50.3898553  61.0444913  56.6288903
  51.1628553  60.9534913  56.5428903  42.7448553  64.2664913  55.6808903
  41.9398553  64.0894913  55.3958903  42.7118553  65.1174913  55.8728903
  42.6208553  64.3654913  55.6678903  38.6748553  60.3334913  65.8308903
  39.1148553  60.2304913  65.0848903  39.2198553  60.0204913  66.4358903
  38.8198553  60.2724913  65.8098903  46.6908553  59.4354913  71.4228903
  46.0428553  59.9054913  71.7708903  47.2558553  59.3464913  72.0818903
  46.6788553  59.4914913  71.5718903  46.3788553  60.9724913  67.7208903
  46.6808553  61.3924913  68.4238903  46.4148553  60.1324913  67.9528903
  46.4288553  60.9104913  67.8588903  48.9268553  60.4194913  59.9728903
  49.1338553  60.2184913  60.7968903  49.6828553  60.6874913  59.6308903
  49.0688553  60.4294913  60.0438903  42.2218553  55.3184913  65.8778903
  41.3958553  55.1694913  66.1148903  42.1818553  55.3534913  65.0068903
  42.0938553  55.3014913  65.7838903  49.9488553  56.5024913  61.4468903
  49.2348553  56.0314913  61.6178903  49.7868553  56.8434913  60.6608903
  49.8198553  56.4834913  61.3558903  50.3918553  64.4464913  59.8268903
  50.8678553  63.7174913  59.7788903  49.5708553  64.1604913  59.7508903
  50.3408553  64.2964913  59.8078903  43.8628553  66.3584913  70.6658903
  43.0678553  66.2944913  71.0168903  43.9338553  67.2054913  70.4708903
  43.7558553  66.4734913  70.6888903  34.7868553  55.7164913  71.9128903
  34.6468553  56.5114913  71.5818903  34.0008553  55.4734913  72.2018903
  34.6498553  55.7984913  71.9068903  37.8508553  58.4604913  59.1378903
  37.9768553  58.1314913  58.3398903  37.0388553  58.2114913  59.3368903
  37.7498553  58.3754913  59.0498903  46.6078553  65.6134913  62.1818903
  46.6838553  65.9544913  62.9808903  46.7768553  64.7664913  62.3028903
  46.6438553  65.5384913  62.3178903  44.1298553  64.8874913  61.7468903
  43.8318553  64.5724913  62.5038903  44.8248553  65.3604913  61.9818903
  44.1888553  64.9104913  61.8938903  44.3518553  69.0054913  69.7738903
  45.0388553  68.8914913  70.2988903  44.4858553  69.7964913  69.4298903
  44.4728553  69.1054913  69.8008903  52.5278553  61.6144913  71.5848903
  51.6728553  61.4924913  71.7108903  52.6808553  61.2194913  70.8218903
  52.4238553  61.5374913  71.4908903  47.0408553  62.2794913  70.1608903
  46.7858553  61.5604913  70.5828903  47.8618553  62.3954913  70.4308903
  47.1248553  62.1904913  70.2628903  44.9748553  63.4694913  73.3478903
  45.2978553  64.1554913  72.9158903  44.2708553  63.7924913  73.7498903
  44.9178553  63.6184913  73.3428903  44.7598553  66.9334913  67.2068903
  44.0658553  67.3354913  67.5498903  45.4368553  67.3664913  67.5458903
  44.7568553  67.0564913  67.3078903  50.1368553  69.5264913  73.7868903
  50.9128553  69.1364913  73.8698903  49.6678553  69.1904913  74.4418903
  50.1818553  69.4194913  73.8958903  37.8278553  60.4714913  69.5538903
  38.2028553  61.0904913  69.0668903  38.5018553  59.9974913  69.8388903
  37.9828553  60.4934913  69.5238903  35.6028553  58.9194913  68.8288903
  35.6798553  58.7504913  67.9758903  36.3488553  59.3254913  69.0258903
  35.7238553  58.9544913  68.7318903  51.1618553  61.5594913  59.2688903
  51.2648553  61.5014913  58.4048903  51.9028553  61.2274913  59.5868903
  51.2868553  61.5024913  59.1878903  38.1568553  56.3294913  71.2398903
  38.0758553  55.4854913  71.4458903  37.8428553  56.3734913  70.4268903
  38.0988553  56.2114913  71.1498903  45.0818553  68.5244913  60.3758903
  44.8768553  69.3574913  60.2168903  44.3068553  68.1424913  60.4978903
  44.9368553  68.5914913  60.3708903  50.2638553  61.7054913  68.6248903
  50.2618553  60.8424913  68.7488903  50.3308553  62.0294913  69.4318903
  50.2738553  61.6254913  68.7618903  34.9998553  64.1454913  69.0528903
  35.3198553  64.3644913  68.2718903  34.8998553  63.2804913  68.9978903
  35.0318553  64.0504913  68.9298903  36.4558553  60.0814913  55.6708903
  35.7838553  60.0954913  56.2268903  36.5508553  59.2334913  55.4868903
  36.3708553  59.9584913  55.7258903  46.1428553  56.5054913  72.4068903
  46.2348553  57.2174913  72.9008903  45.5058553  56.0604913  72.8038903
  46.0618553  56.5444913  72.5388903  45.1368553  56.6954913  63.2608903
  44.4368553  57.2134913  63.2048903  45.1748553  56.3154913  62.4768903
  45.0388553  56.7164913  63.1368903  40.4438553  68.7864913  56.7848903
  40.8848553  68.8664913  57.5328903  39.6388553  68.5704913  57.0428903
  40.3898553  68.7664913  56.9338903  48.7348553  57.2114913  66.0608903
  49.5898553  57.3104913  66.2058903  48.3658553  57.7644913  66.6258903
  48.8068553  57.3084913  66.1658903  39.7628553  63.4374913  70.4378903
  39.3668553  64.2114913  70.5128903  39.3568553  63.0644913  69.7618903
  39.6448553  63.4964913  70.3488903  49.0388553  62.4914913  64.5518903
  49.7048553  63.0324913  64.7118903  48.6938553  62.8024913  63.8128903
  49.0858553  62.6174913  64.4668903  37.7728553  67.8564913  57.3858903
  37.5288553  67.5494913  58.1658903  37.7398553  67.1534913  56.8698903
  37.7318553  67.7074913  57.4248903  40.5918553  66.1014913  56.1288903
  39.7738553  65.8334913  56.2688903  40.5638553  66.9534913  56.3138903
  40.4668553  66.1884913  56.1768903  40.1918553  56.4144913  67.8878903
  39.3278553  56.4984913  67.9678903  40.4118553  55.9004913  68.5568903
  40.0968553  56.3514913  67.9988903  52.2098553  55.0494913  69.2168903
  52.1578553  55.0054913  70.0868903  52.8968553  54.5464913  69.0268903
  52.3038553  54.9694913  69.3168903  44.2948553  57.1624913  66.2618903
  43.5578553  56.7084913  66.3748903  44.8658553  56.7604913  66.7848903
  44.2698553  57.0354913  66.3558903  47.0268553  68.0104913  68.0498903
  47.2328553  68.3114913  68.8418903  46.9658553  68.7324913  67.5648903
  47.0478553  68.1614913  68.0948903  41.7978553  61.4914913  71.4658903
  41.4758553  60.9154913  70.8958903  41.4388553  62.2464913  71.2198903
  41.6978553  61.5174913  71.3458903  42.5938553  54.7434913  56.0928903
  42.6718553  54.9904913  55.2598903  41.8508553  55.1204913  56.3508903
  42.4958553  54.8354913  56.0078903  51.8388553  66.6494913  67.5078903
  51.8068553  65.7874913  67.3728903  51.1458553  66.9514913  67.0738903
  51.7318553  66.5664913  67.4238903  49.9438553  69.9094913  66.3048903
  50.4708553  69.8264913  65.6138903  49.5528553  69.1314913  66.3588903
  49.9638553  69.7824913  66.2108903  37.4118553  56.4974913  68.5358903
  37.0688553  55.7304913  68.3018903  36.7168553  57.0214913  68.5998903
  37.2588553  56.4614913  68.5108903  46.4578553  55.3534913  65.5128903
  47.1278553  55.8974913  65.6398903  45.9548553  55.7774913  64.9398903
  46.4828553  55.4964913  65.4468903  45.8168553  61.1614913  63.0058903
  46.3678553  60.5544913  63.3058903  45.3918553  61.4244913  63.7208903
  45.8358553  61.1104913  63.1548903  36.0648553  59.8114913  62.4918903
  35.6968553  60.1134913  63.2228903  36.5988553  59.1824913  62.7758903
  36.0888553  59.7634913  62.6418903  35.7528553  68.2194913  70.0028903
  35.1788553  68.6354913  70.5118903  36.4858553  68.6844913  70.0978903
  35.7768553  68.3494913  70.0918903  47.7868553  62.9924913  59.5678903
  47.8548553  62.1424913  59.7488903  46.9638553  63.0784913  59.2898903
  47.6748553  62.8794913  59.5538903  41.7058553  63.8834913  58.5058903
  41.8058553  64.0224913  57.6508903  42.5238553  63.8234913  58.8018903
  41.8408553  63.8944913  58.4228903  51.0608553  64.3654913  72.7188903
  51.6948553  64.1954913  73.2928903  51.4778553  64.7684913  72.0668903
  51.2158553  64.4004913  72.7078903  46.9408553  68.2124913  58.3078903
  46.6898553  68.0844913  59.1338903  46.6238553  67.5174913  57.8868903
  46.8568553  68.0914913  58.3678903  51.6858553  58.9294913  73.4568903
  51.4898553  59.5734913  74.0118903  50.9638553  58.4394913  73.4488903
  51.5508553  58.9524913  73.5378903  51.5848553  59.8704913  66.4278903
  50.7518553  60.1204913  66.3558903  51.5288553  59.0304913  66.6568903
  51.4538553  59.7834913  66.4508903  40.8448553  56.8584913  71.6218903
  41.0788553  56.2824913  71.0088903  40.0028553  56.6774913  71.7628903
  40.7548553  56.7464913  71.5518903  48.4718553  64.4764913  74.0738903
  49.3428553  64.4404913  74.0378903  48.2528553  64.8964913  73.3418903
  48.5688553  64.5324913  73.9608903  43.8268553  66.4204913  57.7378903
  44.5438553  66.0734913  57.3818903  43.7928553  67.2204913  57.3898903
  43.9278553  66.4874913  57.6338903  45.2358553  55.0614913  41.9766493
  44.9908553  55.5494913  41.2966493  46.0988553  54.9884913  41.8766493
  45.3268553  55.1224913  41.8616493  45.0448553  61.9774913  46.6476493
  44.5208553  62.5734913  47.0106493  45.4418553  61.6094913  47.3316493
  45.0258553  62.0114913  46.8026493  34.9138553  66.1174913  42.1036493
  34.4728553  66.2354913  42.8466493  34.6308553  65.3424913  41.8186493
  34.8068553  66.0204913  42.1716493  51.1888553  69.4184913  39.6186493
  51.8898553  68.8994913  39.6146493  50.6018553  68.9734913  39.1496493
  51.2058553  69.2754913  39.5486493  34.6568553  59.9094913  38.6106493
  33.8788553  60.0714913  38.2506493  34.6958553  59.0384913  38.6326493
  34.5478553  59.8044913  38.5606493  37.7958553  65.1724913  37.2826493
  37.4038553  64.8014913  36.5966493  37.7158553  64.5744913  37.9116493
  37.7258553  65.0294913  37.2736493  47.7158553  63.0444913  43.3236493
  47.7958553  63.0484913  42.4546493  47.1318553  62.4124913  43.4726493
  47.6408553  62.9514913  43.2176493  37.4228553  66.8134913  41.1826493
  38.0308553  66.6434913  41.7856493  36.6718553  66.6734913  41.6036493
  37.4018553  66.7674913  41.3336493  41.7048553  56.1484913  41.1316493
  41.6348553  56.8254913  40.5856493  42.4458553  55.7604913  40.8826493
  41.8038553  56.1914913  41.0136493  36.3138553  69.9044913  37.2596493
  36.7808553  69.9884913  36.5276493  36.7688553  69.3264913  37.7286493
  36.4498553  69.8314913  37.2206493  34.8538553  68.8524913  48.3586493
  34.9828553  68.5724913  49.1746493  34.2438553  68.3114913  48.0496493
  34.7828553  68.7314913  48.4336493  41.4278553  66.3774913  53.4256493
  41.1918553  66.3744913  54.2656493  40.6798553  66.2294913  53.0016493
  41.2818553  66.3544913  53.4866493  36.2998553  63.3734913  42.5606493
  35.8378553  62.9814913  41.9336493  36.9998553  62.8604913  42.6526493
  36.3348553  63.2404913  42.4816493  40.8078553  58.9834913  47.9076493
  41.4858553  59.0014913  47.3586493  40.7628553  58.1474913  48.1526493
  40.9008553  58.8624913  47.8626493  38.3008553  61.4734913  42.5836493
  39.1178553  61.2864913  42.8266493  37.8238553  60.8594913  42.9796493
  38.3508553  61.3554913  42.6786493  42.5048553  67.4544913  45.1936493
  42.8528553  66.6554913  45.2236493  43.1698553  67.9584913  44.9386493
  42.6548553  67.4104913  45.1606493  42.5618553  66.9034913  41.4046493
  42.8928553  66.2594913  41.8906493  42.8018553  66.6924913  40.5936493
  42.6458553  66.7774913  41.3566493  44.5298553  61.0344913  52.7436493
  43.6818553  60.9354913  52.5656493  44.5588553  61.7794913  53.1976493
  44.4088553  61.1304913  52.7846493  38.8978553  56.5674913  41.8496493
  38.6018553  57.0684913  41.1996493  39.7648553  56.6454913  41.7926493
  38.9818553  56.6534913  41.7456493  49.0878553  53.9944913  51.8576493
  48.9298553  54.7634913  51.4756493  48.3158553  53.7744913  52.2016493
  48.9498553  54.0754913  51.8526493  41.8768553  55.7094913  44.0726493
  41.9498553  56.5694913  44.2016493  41.8388553  55.6344913  43.2046493
  41.8818553  55.8254913  43.9636493  46.5498553  58.6354913  36.3716493
  46.0998553  59.3164913  36.6786493  46.6638553  58.1314913  37.0746493
  46.5008553  58.6614913  36.5206493  34.7558553  61.1344913  45.5736493
  34.4998553  61.9654913  45.4986493  34.0918553  60.7514913  45.9906493
  34.6198553  61.2004913  45.6246493  40.5058553  68.6884913  40.9536493
  39.9268553  68.4134913  41.5456493  41.1298553  68.0794913  40.9786493
  40.5128553  68.5584913  41.0446493  37.7848553  55.9514913  46.0646493
  37.2638553  55.3234913  45.7566493  38.3758553  55.5144913  46.5356493
  37.7958553  55.7934913  46.0886493  41.0908553  58.0844913  55.3626493
  41.2078553  57.6304913  54.6266493  41.3788553  58.8824913  55.1596493
  41.1508553  58.1354913  55.2236493  51.9438553  58.6084913  42.6666493
  51.5978553  59.2864913  43.0926493  51.3078553  58.0104913  42.6826493
  51.7988553  58.6204913  42.7316493  36.8238553  57.6814913  54.3466493
  36.0458553  57.2914913  54.2746493  37.3148553  57.2694913  53.7556493
  36.7808553  57.5624913  54.2486493  37.0288553  68.0014913  44.9046493
  37.4518553  67.6454913  44.2306493  37.3528553  67.5794913  45.5966493
  37.1388553  67.8864913  44.9076493  43.4728553  55.3244913  53.5146493
  43.6508553  54.5154913  53.2396493  43.3298553  55.7654913  52.7756493
  43.4778553  55.2704913  53.3646493  44.0668553  60.2504913  42.2876493
  44.3538553  60.0184913  41.4976493  44.7988553  60.3294913  42.7566493
  44.2168553  60.2274913  42.2406493  44.7888553  60.5894913  37.4086493
  45.0698553  61.3774913  37.6576493  44.0128553  60.7544913  37.0456493
  44.7158553  60.7304913  37.3916493  51.6188553  56.9314913  48.0356493
  52.3758553  57.0034913  47.6076493  51.6818553  56.1584913  48.4346493
  51.7398553  56.8284913  48.0306493  34.1718553  58.2294913  51.9326493
  34.1678553  58.8164913  52.5786493  34.7658553  58.5414913  51.3756493
  34.2588553  58.3624913  51.9456493  46.5098553  68.5634913  52.4746493
  46.4758553  68.9454913  53.2586493  47.3638553  68.5214913  52.3036493
  46.6308553  68.6134913  52.5656493  43.6478553  68.7604913  37.2246493
  43.4668553  69.3054913  37.8816493  44.4138553  69.0504913  36.9236493
  43.7338553  68.8844913  37.2776493  47.1548553  56.6564913  38.2786493
  47.6948553  55.9744913  38.3546493  47.2168553  57.0544913  39.0526493
  47.2438553  56.6144913  38.4046493  35.1088553  57.8244913  40.8476493
  34.9948553  56.9604913  40.8786493  34.6338553  58.1184913  41.5176493
  35.0218553  57.7404913  40.9506493  44.4128553  59.0324913  39.5926493
  43.9048553  58.3704913  39.3386493  44.4648553  59.5364913  38.8826493
  44.3458553  59.0094913  39.4506493  44.4128553  55.9734913  39.4836493
  43.9578553  55.5714913  38.8576493  45.1858553  56.1284913  39.1086493
  44.4598553  55.9374913  39.3356493  43.0108553  58.3404913  44.0056493
  43.0848553  58.9084913  43.3476493  43.1318553  58.8324913  44.7156493
  43.0388553  58.4974913  44.0136493  48.2358553  68.1754913  42.4176493
  48.9368553  67.6934913  42.6066493  47.5758553  67.6064913  42.4626493
  48.2418553  68.0204913  42.4516493  38.6118553  69.0854913  51.6296493
  39.4528553  69.1484913  51.4076493  38.5748553  69.4824913  52.4056493
  38.7308553  69.1534913  51.7116493  37.6188553  54.1634913  42.3536493
  38.1548553  54.8514913  42.3436493  37.6218553  53.8894913  41.5256493
  37.6978553  54.2244913  42.2296493  40.5748553  64.5964913  46.3786493
  40.7468553  64.3864913  47.2076493  39.9198553  64.0624913  46.1626493
  40.5038553  64.4864913  46.4696493  46.8028553  58.5104913  49.8936493
  46.7078553  58.8294913  50.6996493  46.2098553  57.8714913  49.8556493
  46.7008553  58.4624913  50.0076493  41.3248553  64.5344913  48.9686493
  41.3778553  65.3814913  49.1706493  41.0398553  64.1644913  49.7056493
  41.2908553  64.6044913  49.1066493  47.5018553  65.2294913  48.0986493
  46.9878553  64.8174913  48.6696493  47.3758553  66.0734913  48.2796493
  47.4078553  65.2934913  48.2096493  48.0588553  54.4544913  42.7296493
  48.1078553  54.1364913  43.5406493  48.3818553  53.8104913  42.2366493
  48.1138553  54.3124913  42.7766493  34.1458553  68.9054913  55.1796493
  34.9018553  69.2544913  55.4376493  34.3228553  68.0524913  55.1226493
  34.2838553  68.8304913  55.2096493  50.5228553  58.6904913  51.0376493
  51.2948553  58.4654913  51.3746493  50.0478553  58.9074913  51.7376493
  50.5668553  58.6894913  51.1906493  38.0668553  57.9734913  44.0076493
  38.3388553  57.5434913  43.2996493  37.8908553  57.3374913  44.5786493
  38.0808553  57.8164913  43.9876493  50.7548553  65.6684913  38.2256493
  50.8738553  65.3814913  39.0406493  51.5618553  65.6894913  37.8956493
  50.8908553  65.6294913  38.2976493  37.8908553  65.4004913  43.5566493
  38.7418553  65.3204913  43.3836493  37.5338553  64.7184913  43.1446493
  37.9638553  65.2874913  43.4696493  36.2078553  59.0754913  47.0896493
  37.0508553  59.2954913  47.0466493  35.8188553  59.6484913  46.5586493
  36.2748553  59.1924913  47.0046493  48.6498553  62.2054913  37.8106493
  48.4298553  62.9364913  37.3886493  48.2018553  62.2564913  38.5576493
  48.5508553  62.3204913  37.8586493  40.2588553  65.4074913  41.7916493
  40.9718553  65.9024913  41.8816493  40.4808553  64.8404913  41.1656493
  40.3968553  65.3964913  41.7126493  52.8368553  57.0664913  37.2636493
  52.1748553  56.4984913  37.2866493  52.6438553  57.5784913  36.5836493
  52.7108553  57.0584913  37.1666493  34.4148553  67.0504913  45.1116493
  33.7478553  67.5384913  45.3876493  35.0948553  67.5954913  45.1406493
  34.4168553  67.2024913  45.1566493  42.0618553  60.7604913  55.2076493
  41.5778553  61.3374913  55.6496493  42.0338553  61.0554913  54.3866493
  41.9858553  60.8894913  55.1516493  53.1598553  61.4444913  49.8196493
  53.3748553  60.6444913  49.5436493  52.3098553  61.5044913  49.6306493
  53.0658553  61.3354913  49.7506493  34.4808553  63.7344913  40.2146493
  34.2958553  62.8954913  40.3666493  35.1398553  63.6984913  39.6446493
  34.5508553  63.6054913  40.1526493  50.8388553  56.6244913  39.5426493
  51.5848553  56.2174913  39.7416493  51.1018553  57.3394913  39.1176493
  50.9878553  56.6704913  39.5096493  44.7818553  69.1104913  44.1186493
  44.2588553  69.7444913  43.8256493  45.0918553  68.7464913  43.3896493
  44.7498553  69.1504913  43.9676493  34.6528553  67.8984913  39.7896493
  35.2048553  68.4674913  40.1536493  34.4208553  67.3834913  40.4546493
  34.6998553  67.9064913  39.9416493  38.8568553  66.8984913  46.8786493
  39.3238553  67.1874913  47.5566493  39.4288553  66.4204913  46.4246493
  39.0108553  66.8704913  46.9116493  47.2928553  58.9124913  44.6156493
  47.6368553  59.0644913  45.4026493  46.8398553  58.1744913  44.7286493
  47.2768553  58.8254913  44.7486493  34.4828553  66.3474913  37.4176493
  35.2388553  65.9154913  37.4756493  34.4978553  66.8794913  38.1086493
  34.5968553  66.3624913  37.5286493  35.4228553  64.5684913  45.4226493
  35.8538553  64.4394913  44.6756493  35.2178553  65.4164913  45.3966493
  35.4558553  64.6744913  45.3086493  41.7688553  58.1324913  39.0726493
  41.7668553  58.0154913  38.2076493  41.5878553  58.9804913  39.1646493
  41.7418553  58.2404913  38.9586493  39.5068553  68.0844913  43.7046493
  39.6328553  68.9274913  43.8916493  40.1748553  67.6854913  44.1006493
  39.6248553  68.1504913  43.7906493  37.6368553  61.5674913  53.5666493
  37.1008553  61.0614913  54.0346493  37.6568553  61.1774913  52.7866493
  37.5598553  61.4344913  53.5206493  38.1218553  60.9644913  38.7066493
  37.9938553  60.5164913  39.4446493  37.5398553  60.6224913  38.1546493
  38.0168553  60.8474913  38.7346493  38.2888553  62.7944913  45.3056493
  37.5078553  62.7354913  44.9226493  38.3608553  62.0424913  45.7426493
  38.1838553  62.6754913  45.3136493  38.7188553  62.5314913  48.7736493
  38.7438553  61.8564913  48.2226493  38.0728553  63.0274913  48.4616493
  38.6278553  62.5044913  48.6466493  48.6138553  60.2444913  47.1696493
  47.9518553  60.5724913  47.6326493  48.8008553  60.8784913  46.6006493
  48.5438553  60.3864913  47.1536493  45.2588553  56.1504913  50.5986493
  45.4078553  55.3254913  50.3556493  45.6378553  56.2054913  51.3826493
  45.3368553  56.0364913  50.6786493  46.8068553  58.2134913  40.6806493
  47.2968553  58.9304913  40.6036493  46.0168553  58.4744913  40.4176493
  46.7628553  58.3574913  40.6306493  36.5178553  63.8864913  54.3326493
  36.4808553  64.3874913  53.6186493  36.8488553  63.1344913  54.0376493
  36.5608553  63.8484913  54.1836493  48.1208553  66.0914913  52.5906493
  48.6048553  66.8094913  52.6886493  48.5148553  65.6644913  51.9396493
  48.2508553  66.1344913  52.5086493  42.4168553  68.9364913  53.7676493
  42.7708553  68.7584913  54.5446493  41.9808553  68.2074913  53.5686493
  42.4048553  68.8024913  53.8536493  43.3888553  59.6834913  46.4056493
  43.8688553  60.3824913  46.6136493  43.7618553  59.0364913  46.8566493
  43.5148553  59.6914913  46.5026493  45.5778553  62.8524913  38.6796493
  45.5698553  63.5744913  38.1896493  44.9388553  62.9874913  39.2566493
  45.4828553  62.9794913  38.6926493  50.5498553  66.7224913  42.6606493
  50.9058553  66.3724913  43.3756493  50.5418553  66.0614913  42.0906493
  50.6018553  66.5724913  42.6816493  46.6078553  66.6394913  45.9046493
  45.8108553  66.8634913  46.1786493  46.8658553  66.0454913  46.4896493
  46.5278553  66.5844913  46.0316493  40.1708553  55.1944913  38.3406493
  40.2678553  55.0874913  39.2016493  39.4628553  55.7004913  38.2756493
  40.0808553  55.2534913  38.4586493  49.8678553  64.6374913  50.7506493
  49.9228553  64.7624913  49.8886493  50.6208553  64.9574913  51.0526493
  49.9868553  64.7024913  50.6676493  50.8998553  54.9354913  53.7376493
  50.2628553  54.5354913  53.2956493  50.9258553  54.5044913  54.4956493
  50.8098553  54.8134913  53.7836493  37.2928553  63.5014913  39.5836493
  37.6168553  62.7224913  39.3616493  37.9388553  63.8694913  40.0386493
  37.4358553  63.4404913  39.6176493  45.5988553  64.4434913  50.3506493
  45.4438553  65.0534913  50.9546493  46.1328553  63.8854913  50.7566493
  45.6548553  64.4514913  50.4996493  34.2898553  55.1624913  40.5516493
  34.4188553  54.4544913  40.0596493  33.9228553  54.8444913  41.2766493
  34.2548553  55.0104913  40.5866493  43.9828553  62.8434913  41.0086493
  44.0418553  63.4934913  41.5876493  43.7938553  62.1474913  41.4996493
  43.9638553  62.8364913  41.1666493  49.2088553  67.1724913  46.8776493
  48.7298553  67.4704913  46.2116493  48.8528553  66.3964913  47.0556493
  49.0858553  67.1014913  46.8056493  38.4788553  57.3604913  37.5206493
  37.9678553  57.4134913  36.8146493  39.2628553  57.6004913  37.2246493
  38.5188553  57.4034913  37.3726493  43.2058553  64.8904913  45.4396493
  42.3588553  64.6964913  45.5206493  43.5298553  64.7254913  46.2326493
  43.1278553  64.8374913  45.5686493  37.0538553  64.5834913  47.7556493
  37.7758553  65.0714913  47.7186493  36.7838553  64.5534913  46.9266493
  37.1208553  64.6514913  47.6276493  40.2838553  59.7544913  44.4906493
  41.1298553  59.5644913  44.5886493  39.9138553  58.9774913  44.3526493
  40.3538553  59.6114913  44.4846493  35.1048553  61.0924913  41.1456493
  35.5938553  60.8004913  41.8066493  35.2338553  60.4994913  40.5186493
  35.1958553  60.9614913  41.1506493  50.1398553  64.1144913  47.9966493
  50.1328553  63.3384913  48.3946493  49.2988553  64.3484913  47.9896493
  50.0148553  64.0344913  48.0546493  39.6298553  62.5264913  36.6316493
  39.0198553  62.1214913  37.1056493  39.2438553  62.6444913  35.8586493
  39.4828553  62.4834913  36.5876493  36.4488553  65.6354913  52.0336493
  36.0278553  65.1174913  51.4726493  36.0968553  66.4214913  51.8906493
  36.3348553  65.6754913  51.9296493  51.3958553  64.1854913  45.4336493
  51.1098553  64.5864913  46.1536493  52.2558553  64.1234913  45.5606493
  51.4808553  64.2354913  45.5586493  41.0848553  60.9874913  39.3416493
  41.3568553  61.8134913  39.4086493  40.2218553  61.0624913  39.2456493
  40.9978553  61.1204913  39.3366493  49.0578553  58.1094913  53.9736493
  48.5328553  58.5684913  54.4976493  48.6968553  57.3144913  53.9676493
  48.9268553  58.0594913  54.0496493  34.5648553  56.9574913  45.8776493
  34.6088553  57.3014913  45.0766493  35.3198553  57.1944913  46.2446493
  34.6828553  57.0434913  45.8136493  52.5268553  69.8184913  45.9626493
  52.8168553  70.0754913  45.1816493  53.2218553  69.9144913  46.4816493
  52.6728553  69.8704913  45.9236493  47.5498553  61.6784913  54.0496493
  47.6228553  61.7824913  54.9126493  46.9158553  62.2364913  53.8286493
  47.4668553  61.7764913  54.1446493  49.8178553  61.9974913  52.4146493
  50.1368553  62.7834913  52.6176493  49.4478553  61.7274913  53.1576493
  49.8108553  62.0734913  52.5546493  49.1318553  68.4214913  37.9446493
  49.4658553  67.6154913  37.9796493  48.3768553  68.3494913  38.3746493
  49.0698553  68.2914913  38.0136493  49.6138553  60.2554913  43.6036493
  48.8688553  59.9324913  43.9216493  49.6158553  61.0814913  43.8836493
  49.5038553  60.3294913  43.6916493  52.5158553  62.5394913  55.1496493
  52.4638553  62.1984913  54.3486493  53.2528553  63.0064913  55.1276493
  52.6168553  62.5584913  55.0276493  52.0538553  66.2154913  51.3556493
  52.6818553  65.6664913  51.0996493  51.9928553  66.7804913  50.6936493
  52.1378553  66.2184913  51.2196493  46.5058553  66.2964913  37.3476493
  47.1898553  65.7824913  37.1786493  46.0888553  66.3424913  36.5826493
  46.5448553  66.2274913  37.2096493  41.1878553  67.4464913  48.6516493
  40.8898553  68.0384913  49.2186493  41.2428553  67.8884913  47.9026493
  41.1518553  67.5994913  48.6246493  39.1668553  66.3964913  52.0496493
  38.3608553  66.1064913  52.2166493  39.0778553  67.2644913  52.0556493
  39.0348553  66.4814913  52.0746493  48.5258553  56.5854913  51.0646493
  49.2698553  57.0374913  51.0016493  47.9598553  57.0554913  50.5956493
  48.5528553  56.7224913  50.9866493  43.7038553  63.8694913  48.1426493
  44.1798553  64.2434913  48.7706493  42.8808553  64.0034913  48.4016493
  43.6528553  63.9444913  48.2736493  40.4138553  59.4724913  50.8836493
  40.5748553  58.7284913  51.3106493  40.3688553  59.2234913  50.0486493
  40.4308553  59.3254913  50.8236493  49.8108553  54.5654913  48.7346493
  49.5308553  55.3904913  48.6906493  50.5268553  54.6184913  49.2306493
  49.8758553  54.6954913  48.8016493  42.1658553  55.2804913  50.7636493
  42.8708553  55.6004913  50.3616493  42.4068553  54.4734913  50.9906493
  42.3048553  55.2084913  50.7376493  41.1508553  69.4904913  46.7596493
  40.5268553  70.0724913  46.5776493  41.3988553  69.2044913  45.9736493
  41.0948553  69.5344913  46.6166493  45.4598553  66.1244913  53.7486493
  46.2168553  66.4104913  53.4226493  44.9128553  66.1764913  53.0706493
  45.4908553  66.1744913  53.5996493  49.3688553  68.6744913  52.2526493
  49.7148553  68.9444913  53.0066493  49.6628553  69.2564913  51.6726493
  49.4638553  68.8004913  52.2786493  51.2318553  60.8204913  37.5916493
  51.6098553  61.4974913  37.1916493  50.3898553  61.0444913  37.6226493
  51.1628553  60.9534913  37.5366493  42.7448553  64.2664913  36.6746493
  41.9398553  64.0894913  36.3896493  42.7118553  65.1174913  36.8666493
  42.6208553  64.3654913  36.6616493  38.6748553  60.3334913  46.8246493
  39.1148553  60.2304913  46.0786493  39.2198553  60.0204913  47.4296493
  38.8198553  60.2724913  46.8036493  46.6908553  59.4354913  52.4166493
  46.0428553  59.9054913  52.7646493  47.2558553  59.3464913  53.0756493
  46.6788553  59.4914913  52.5656493  46.3788553  60.9724913  48.7146493
  46.6808553  61.3924913  49.4176493  46.4148553  60.1324913  48.9466493
  46.4288553  60.9104913  48.8526493  48.9268553  60.4194913  40.9666493
  49.1338553  60.2184913  41.7906493  49.6828553  60.6874913  40.6246493
  49.0688553  60.4294913  41.0376493  42.2218553  55.3184913  46.8716493
  41.3958553  55.1694913  47.1086493  42.1818553  55.3534913  46.0006493
  42.0938553  55.3014913  46.7776493  49.9488553  56.5024913  42.4406493
  49.2348553  56.0314913  42.6116493  49.7868553  56.8434913  41.6546493
  49.8198553  56.4834913  42.3496493  50.3918553  64.4464913  40.8206493
  50.8678553  63.7174913  40.7726493  49.5708553  64.1604913  40.7446493
  50.3408553  64.2964913  40.8016493  43.8628553  66.3584913  51.6596493
  43.0678553  66.2944913  52.0106493  43.9338553  67.2054913  51.4646493
  43.7558553  66.4734913  51.6826493  34.7868553  55.7164913  52.9066493
  34.6468553  56.5114913  52.5756493  34.0008553  55.4734913  53.1956493
  34.6498553  55.7984913  52.9006493  37.8508553  58.4604913  40.1316493
  37.9768553  58.1314913  39.3336493  37.0388553  58.2114913  40.3306493
  37.7498553  58.3754913  40.0436493  46.6078553  65.6134913  43.1756493
  46.6838553  65.9544913  43.9746493  46.7768553  64.7664913  43.2966493
  46.6438553  65.5384913  43.3116493  44.1298553  64.8874913  42.7406493
  43.8318553  64.5724913  43.4976493  44.8248553  65.3604913  42.9756493
  44.1888553  64.9104913  42.8876493  44.3518553  69.0054913  50.7676493
  45.0388553  68.8914913  51.2926493  44.4858553  69.7964913  50.4236493
  44.4728553  69.1054913  50.7946493  52.5278553  61.6144913  52.5786493
  51.6728553  61.4924913  52.7046493  52.6808553  61.2194913  51.8156493
  52.4238553  61.5374913  52.4846493  47.0408553  62.2794913  51.1546493
  46.7858553  61.5604913  51.5766493  47.8618553  62.3954913  51.4246493
  47.1248553  62.1904913  51.2566493  44.9748553  63.4694913  54.3416493
  45.2978553  64.1554913  53.9096493  44.2708553  63.7924913  54.7436493
  44.9178553  63.6184913  54.3366493  44.7598553  66.9334913  48.2006493
  44.0658553  67.3354913  48.5436493  45.4368553  67.3664913  48.5396493
  44.7568553  67.0564913  48.3016493  50.1368553  69.5264913  54.7806493
  50.9128553  69.1364913  54.8636493  49.6678553  69.1904913  55.4356493
  50.1818553  69.4194913  54.8896493  37.8278553  60.4714913  50.5476493
  38.2028553  61.0904913  50.0606493  38.5018553  59.9974913  50.8326493
  37.9828553  60.4934913  50.5176493  35.6028553  58.9194913  49.8226493
  35.6798553  58.7504913  48.9696493  36.3488553  59.3254913  50.0196493
  35.7238553  58.9544913  49.7256493  51.1618553  61.5594913  40.2626493
  51.2648553  61.5014913  39.3986493  51.9028553  61.2274913  40.5806493
  51.2868553  61.5024913  40.1816493  38.1568553  56.3294913  52.2336493
  38.0758553  55.4854913  52.4396493  37.8428553  56.3734913  51.4206493
  38.0988553  56.2114913  52.1436493  45.0818553  68.5244913  41.3696493
  44.8768553  69.3574913  41.2106493  44.3068553  68.1424913  41.4916493
  44.9368553  68.5914913  41.3646493  50.2638553  61.7054913  49.6186493
  50.2618553  60.8424913  49.7426493  50.3308553  62.0294913  50.4256493
  50.2738553  61.6254913  49.7556493  34.9998553  64.1454913  50.0466493
  35.3198553  64.3644913  49.2656493  34.8998553  63.2804913  49.9916493
  35.0318553  64.0504913  49.9236493  36.4558553  60.0814913  36.6646493
  35.7838553  60.0954913  37.2206493  36.5508553  59.2334913  36.4806493
  36.3708553  59.9584913  36.7196493  46.1428553  56.5054913  53.4006493
  46.2348553  57.2174913  53.8946493  45.5058553  56.0604913  53.7976493
  46.0618553  56.5444913  53.5326493  45.1368553  56.6954913  44.2546493
  44.4368553  57.2134913  44.1986493  45.1748553  56.3154913  43.4706493
  45.0388553  56.7164913  44.1306493  40.4438553  68.7864913  37.7786493
  40.8848553  68.8664913  38.5266493  39.6388553  68.5704913  38.0366493
  40.3898553  68.7664913  37.9276493  48.7348553  57.2114913  47.0546493
  49.5898553  57.3104913  47.1996493  48.3658553  57.7644913  47.6196493
  48.8068553  57.3084913  47.1596493  39.7628553  63.4374913  51.4316493
  39.3668553  64.2114913  51.5066493  39.3568553  63.0644913  50.7556493
  39.6448553  63.4964913  51.3426493  49.0388553  62.4914913  45.5456493
  49.7048553  63.0324913  45.7056493  48.6938553  62.8024913  44.8066493
  49.0858553  62.6174913  45.4606493  37.7728553  67.8564913  38.3796493
  37.5288553  67.5494913  39.1596493  37.7398553  67.1534913  37.8636493
  37.7318553  67.7074913  38.4186493  40.5918553  66.1014913  37.1226493
  39.7738553  65.8334913  37.2626493  40.5638553  66.9534913  37.3076493
  40.4668553  66.1884913  37.1706493  40.1918553  56.4144913  48.8816493
  39.3278553  56.4984913  48.9616493  40.4118553  55.9004913  49.5506493
  40.0968553  56.3514913  48.9926493  52.2098553  55.0494913  50.2106493
  52.1578553  55.0054913  51.0806493  52.8968553  54.5464913  50.0206493
  52.3038553  54.9694913  50.3106493  44.2948553  57.1624913  47.2556493
  43.5578553  56.7084913  47.3686493  44.8658553  56.7604913  47.7786493
  44.2698553  57.0354913  47.3496493  47.0268553  68.0104913  49.0436493
  47.2328553  68.3114913  49.8356493  46.9658553  68.7324913  48.5586493
  47.0478553  68.1614913  49.0886493  41.7978553  61.4914913  52.4596493
  41.4758553  60.9154913  51.8896493  41.4388553  62.2464913  52.2136493
  41.6978553  61.5174913  52.3396493  42.5938553  54.7434913  37.0866493
  42.6718553  54.9904913  36.2536493  41.8508553  55.1204913  37.3446493
  42.4958553  54.8354913  37.0016493  51.8388553  66.6494913  48.5016493
  51.8068553  65.7874913  48.3666493  51.1458553  66.9514913  48.0676493
  51.7318553  66.5664913  48.4176493  49.9438553  69.9094913  47.2986493
  50.4708553  69.8264913  46.6076493  49.5528553  69.1314913  47.3526493
  49.9638553  69.7824913  47.2046493  37.4118553  56.4974913  49.5296493
  37.0688553  55.7304913  49.2956493  36.7168553  57.0214913  49.5936493
  37.2588553  56.4614913  49.5046493  46.4578553  55.3534913  46.5066493
  47.1278553  55.8974913  46.6336493  45.9548553  55.7774913  45.9336493
  46.4828553  55.4964913  46.4406493  45.8168553  61.1614913  43.9996493
  46.3678553  60.5544913  44.2996493  45.3918553  61.4244913  44.7146493
  45.8358553  61.1104913  44.1486493  36.0648553  59.8114913  43.4856493
  35.6968553  60.1134913  44.2166493  36.5988553  59.1824913  43.7696493
  36.0888553  59.7634913  43.6356493  35.7528553  68.2194913  50.9966493
  35.1788553  68.6354913  51.5056493  36.4858553  68.6844913  51.0916493
  35.7768553  68.3494913  51.0856493  47.7868553  62.9924913  40.5616493
  47.8548553  62.1424913  40.7426493  46.9638553  63.0784913  40.2836493
  47.6748553  62.8794913  40.5476493  41.7058553  63.8834913  39.4996493
  41.8058553  64.0224913  38.6446493  42.5238553  63.8234913  39.7956493
  41.8408553  63.8944913  39.4166493  51.0608553  64.3654913  53.7126493
  51.6948553  64.1954913  54.2866493  51.4778553  64.7684913  53.0606493
  51.2158553  64.4004913  53.7016493  46.9408553  68.2124913  39.3016493
  46.6898553  68.0844913  40.1276493  46.6238553  67.5174913  38.8806493
  46.8568553  68.0914913  39.3616493  51.6858553  58.9294913  54.4506493
  51.4898553  59.5734913  55.0056493  50.9638553  58.4394913  54.4426493
  51.5508553  58.9524913  54.5316493  51.5848553  59.8704913  47.4216493
  50.7518553  60.1204913  47.3496493  51.5288553  59.0304913  47.6506493
  51.4538553  59.7834913  47.4446493  40.8448553  56.8584913  52.6156493
  41.0788553  56.2824913  52.0026493  40.0028553  56.6774913  52.7566493
  40.7548553  56.7464913  52.5456493  48.4718553  64.4764913  55.0676493
  49.3428553  64.4404913  55.0316493  48.2528553  64.8964913  54.3356493
  48.5688553  64.5324913  54.9546493  43.8268553  66.4204913  38.7316493
  44.5438553  66.0734913  38.3756493  43.7928553  67.2204913  38.3836493
  43.9278553  66.4874913  38.6276493  45.2358553  55.0614913  22.9704083
  44.9908553  55.5494913  22.2904083  46.0988553  54.9884913  22.8704083
  45.3268553  55.1224913  22.8554083  45.0448553  61.9774913  27.6414083
  44.5208553  62.5734913  28.0044083  45.4418553  61.6094913  28.3254083
  45.0258553  62.0114913  27.7964083  34.9138553  66.1174913  23.0974083
  34.4728553  66.2354913  23.8404083  34.6308553  65.3424913  22.8124083
  34.8068553  66.0204913  23.1654083  51.1888553  69.4184913  20.6124083
  51.8898553  68.8994913  20.6084083  50.6018553  68.9734913  20.1434083
  51.2058553  69.2754913  20.5424083  34.6568553  59.9094913  19.6044083
  33.8788553  60.0714913  19.2444083  34.6958553  59.0384913  19.6264083
  34.5478553  59.8044913  19.5544083  37.7958553  65.1724913  18.2764083
  37.4038553  64.8014913  17.5904083  37.7158553  64.5744913  18.9054083
  37.7258553  65.0294913  18.2674083  47.7158553  63.0444913  24.3174083
  47.7958553  63.0484913  23.4484083  47.1318553  62.4124913  24.4664083
  47.6408553  62.9514913  24.2114083  37.4228553  66.8134913  22.1764083
  38.0308553  66.6434913  22.7794083  36.6718553  66.6734913  22.5974083
  37.4018553  66.7674913  22.3274083  41.7048553  56.1484913  22.1254083
  41.6348553  56.8254913  21.5794083  42.4458553  55.7604913  21.8764083
  41.8038553  56.1914913  22.0074083  36.3138553  69.9044913  18.2534083
  36.7808553  69.9884913  17.5214083  36.7688553  69.3264913  18.7224083
  36.4498553  69.8314913  18.2144083  34.8538553  68.8524913  29.3524083
  34.9828553  68.5724913  30.1684083  34.2438553  68.3114913  29.0434083
  34.7828553  68.7314913  29.4274083  41.4278553  66.3774913  34.4194083
  41.1918553  66.3744913  35.2594083  40.6798553  66.2294913  33.9954083
  41.2818553  66.3544913  34.4804083  36.2998553  63.3734913  23.5544083
  35.8378553  62.9814913  22.9274083  36.9998553  62.8604913  23.6464083
  36.3348553  63.2404913  23.4754083  40.8078553  58.9834913  28.9014083
  41.4858553  59.0014913  28.3524083  40.7628553  58.1474913  29.1464083
  40.9008553  58.8624913  28.8564083  38.3008553  61.4734913  23.5774083
  39.1178553  61.2864913  23.8204083  37.8238553  60.8594913  23.9734083
  38.3508553  61.3554913  23.6724083  42.5048553  67.4544913  26.1874083
  42.8528553  66.6554913  26.2174083  43.1698553  67.9584913  25.9324083
  42.6548553  67.4104913  26.1544083  42.5618553  66.9034913  22.3984083
  42.8928553  66.2594913  22.8844083  42.8018553  66.6924913  21.5874083
  42.6458553  66.7774913  22.3504083  44.5298553  61.0344913  33.7374083
  43.6818553  60.9354913  33.5594083  44.5588553  61.7794913  34.1914083
  44.4088553  61.1304913  33.7784083  38.8978553  56.5674913  22.8434083
  38.6018553  57.0684913  22.1934083  39.7648553  56.6454913  22.7864083
  38.9818553  56.6534913  22.7394083  49.0878553  53.9944913  32.8514083
  48.9298553  54.7634913  32.4694083  48.3158553  53.7744913  33.1954083
  48.9498553  54.0754913  32.8464083  41.8768553  55.7094913  25.0664083
  41.9498553  56.5694913  25.1954083  41.8388553  55.6344913  24.1984083
  41.8818553  55.8254913  24.9574083  46.5498553  58.6354913  17.3654083
  46.0998553  59.3164913  17.6724083  46.6638553  58.1314913  18.0684083
  46.5008553  58.6614913  17.5144083  34.7558553  61.1344913  26.5674083
  34.4998553  61.9654913  26.4924083  34.0918553  60.7514913  26.9844083
  34.6198553  61.2004913  26.6184083  40.5058553  68.6884913  21.9474083
  39.9268553  68.4134913  22.5394083  41.1298553  68.0794913  21.9724083
  40.5128553  68.5584913  22.0384083  37.7848553  55.9514913  27.0584083
  37.2638553  55.3234913  26.7504083  38.3758553  55.5144913  27.5294083
  37.7958553  55.7934913  27.0824083  41.0908553  58.0844913  36.3564083
  41.2078553  57.6304913  35.6204083  41.3788553  58.8824913  36.1534083
  41.1508553  58.1354913  36.2174083  51.9438553  58.6084913  23.6604083
  51.5978553  59.2864913  24.0864083  51.3078553  58.0104913  23.6764083
  51.7988553  58.6204913  23.7254083  36.8238553  57.6814913  35.3404083
  36.0458553  57.2914913  35.2684083  37.3148553  57.2694913  34.7494083
  36.7808553  57.5624913  35.2424083  37.0288553  68.0014913  25.8984083
  37.4518553  67.6454913  25.2244083  37.3528553  67.5794913  26.5904083
  37.1388553  67.8864913  25.9014083  43.4728553  55.3244913  34.5084083
  43.6508553  54.5154913  34.2334083  43.3298553  55.7654913  33.7694083
  43.4778553  55.2704913  34.3584083  44.0668553  60.2504913  23.2814083
  44.3538553  60.0184913  22.4914083  44.7988553  60.3294913  23.7504083
  44.2168553  60.2274913  23.2344083  44.7888553  60.5894913  18.4024083
  45.0698553  61.3774913  18.6514083  44.0128553  60.7544913  18.0394083
  44.7158553  60.7304913  18.3854083  51.6188553  56.9314913  29.0294083
  52.3758553  57.0034913  28.6014083  51.6818553  56.1584913  29.4284083
  51.7398553  56.8284913  29.0244083  34.1718553  58.2294913  32.9264083
  34.1678553  58.8164913  33.5724083  34.7658553  58.5414913  32.3694083
  34.2588553  58.3624913  32.9394083  46.5098553  68.5634913  33.4684083
  46.4758553  68.9454913  34.2524083  47.3638553  68.5214913  33.2974083
  46.6308553  68.6134913  33.5594083  43.6478553  68.7604913  18.2184083
  43.4668553  69.3054913  18.8754083  44.4138553  69.0504913  17.9174083
  43.7338553  68.8844913  18.2714083  47.1548553  56.6564913  19.2724083
  47.6948553  55.9744913  19.3484083  47.2168553  57.0544913  20.0464083
  47.2438553  56.6144913  19.3984083  35.1088553  57.8244913  21.8414083
  34.9948553  56.9604913  21.8724083  34.6338553  58.1184913  22.5114083
  35.0218553  57.7404913  21.9444083  44.4128553  59.0324913  20.5864083
  43.9048553  58.3704913  20.3324083  44.4648553  59.5364913  19.8764083
  44.3458553  59.0094913  20.4444083  44.4128553  55.9734913  20.4774083
  43.9578553  55.5714913  19.8514083  45.1858553  56.1284913  20.1024083
  44.4598553  55.9374913  20.3294083  43.0108553  58.3404913  24.9994083
  43.0848553  58.9084913  24.3414083  43.1318553  58.8324913  25.7094083
  43.0388553  58.4974913  25.0074083  48.2358553  68.1754913  23.4114083
  48.9368553  67.6934913  23.6004083  47.5758553  67.6064913  23.4564083
  48.2418553  68.0204913  23.4454083  38.6118553  69.0854913  32.6234083
  39.4528553  69.1484913  32.4014083  38.5748553  69.4824913  33.3994083
  38.7308553  69.1534913  32.7054083  37.6188553  54.1634913  23.3474083
  38.1548553  54.8514913  23.3374083  37.6218553  53.8894913  22.5194083
  37.6978553  54.2244913  23.2234083  40.5748553  64.5964913  27.3724083
  40.7468553  64.3864913  28.2014083  39.9198553  64.0624913  27.1564083
  40.5038553  64.4864913  27.4634083  46.8028553  58.5104913  30.8874083
  46.7078553  58.8294913  31.6934083  46.2098553  57.8714913  30.8494083
  46.7008553  58.4624913  31.0014083  41.3248553  64.5344913  29.9624083
  41.3778553  65.3814913  30.1644083  41.0398553  64.1644913  30.6994083
  41.2908553  64.6044913  30.1004083  47.5018553  65.2294913  29.0924083
  46.9878553  64.8174913  29.6634083  47.3758553  66.0734913  29.2734083
  47.4078553  65.2934913  29.2034083  48.0588553  54.4544913  23.7234083
  48.1078553  54.1364913  24.5344083  48.3818553  53.8104913  23.2304083
  48.1138553  54.3124913  23.7704083  34.1458553  68.9054913  36.1734083
  34.9018553  69.2544913  36.4314083  34.3228553  68.0524913  36.1164083
  34.2838553  68.8304913  36.2034083  50.5228553  58.6904913  32.0314083
  51.2948553  58.4654913  32.3684083  50.0478553  58.9074913  32.7314083
  50.5668553  58.6894913  32.1844083  38.0668553  57.9734913  25.0014083
  38.3388553  57.5434913  24.2934083  37.8908553  57.3374913  25.5724083
  38.0808553  57.8164913  24.9814083  50.7548553  65.6684913  19.2194083
  50.8738553  65.3814913  20.0344083  51.5618553  65.6894913  18.8894083
  50.8908553  65.6294913  19.2914083  37.8908553  65.4004913  24.5504083
  38.7418553  65.3204913  24.3774083  37.5338553  64.7184913  24.1384083
  37.9638553  65.2874913  24.4634083  36.2078553  59.0754913  28.0834083
  37.0508553  59.2954913  28.0404083  35.8188553  59.6484913  27.5524083
  36.2748553  59.1924913  27.9984083  48.6498553  62.2054913  18.8044083
  48.4298553  62.9364913  18.3824083  48.2018553  62.2564913  19.5514083
  48.5508553  62.3204913  18.8524083  40.2588553  65.4074913  22.7854083
  40.9718553  65.9024913  22.8754083  40.4808553  64.8404913  22.1594083
  40.3968553  65.3964913  22.7064083  52.8368553  57.0664913  18.2574083
  52.1748553  56.4984913  18.2804083  52.6438553  57.5784913  17.5774083
  52.7108553  57.0584913  18.1604083  34.4148553  67.0504913  26.1054083
  33.7478553  67.5384913  26.3814083  35.0948553  67.5954913  26.1344083
  34.4168553  67.2024913  26.1504083  42.0618553  60.7604913  36.2014083
  41.5778553  61.3374913  36.6434083  42.0338553  61.0554913  35.3804083
  41.9858553  60.8894913  36.1454083  53.1598553  61.4444913  30.8134083
  53.3748553  60.6444913  30.5374083  52.3098553  61.5044913  30.6244083
  53.0658553  61.3354913  30.7444083  34.4808553  63.7344913  21.2084083
  34.2958553  62.8954913  21.3604083  35.1398553  63.6984913  20.6384083
  34.5508553  63.6054913  21.1464083  50.8388553  56.6244913  20.5364083
  51.5848553  56.2174913  20.7354083  51.1018553  57.3394913  20.1114083
  50.9878553  56.6704913  20.5034083  44.7818553  69.1104913  25.1124083
  44.2588553  69.7444913  24.8194083  45.0918553  68.7464913  24.3834083
  44.7498553  69.1504913  24.9614083  34.6528553  67.8984913  20.7834083
  35.2048553  68.4674913  21.1474083  34.4208553  67.3834913  21.4484083
  34.6998553  67.9064913  20.9354083  38.8568553  66.8984913  27.8724083
  39.3238553  67.1874913  28.5504083  39.4288553  66.4204913  27.4184083
  39.0108553  66.8704913  27.9054083  47.2928553  58.9124913  25.6094083
  47.6368553  59.0644913  26.3964083  46.8398553  58.1744913  25.7224083
  47.2768553  58.8254913  25.7424083  34.4828553  66.3474913  18.4114083
  35.2388553  65.9154913  18.4694083  34.4978553  66.8794913  19.1024083
  34.5968553  66.3624913  18.5224083  35.4228553  64.5684913  26.4164083
  35.8538553  64.4394913  25.6694083  35.2178553  65.4164913  26.3904083
  35.4558553  64.6744913  26.3024083  41.7688553  58.1324913  20.0664083
  41.7668553  58.0154913  19.2014083  41.5878553  58.9804913  20.1584083
  41.7418553  58.2404913  19.9524083  39.5068553  68.0844913  24.6984083
  39.6328553  68.9274913  24.8854083  40.1748553  67.6854913  25.0944083
  39.6248553  68.1504913  24.7844083  37.6368553  61.5674913  34.5604083
  37.1008553  61.0614913  35.0284083  37.6568553  61.1774913  33.7804083
  37.5598553  61.4344913  34.5144083  38.1218553  60.9644913  19.7004083
  37.9938553  60.5164913  20.4384083  37.5398553  60.6224913  19.1484083
  38.0168553  60.8474913  19.7284083  38.2888553  62.7944913  26.2994083
  37.5078553  62.7354913  25.9164083  38.3608553  62.0424913  26.7364083
  38.1838553  62.6754913  26.3074083  38.7188553  62.5314913  29.7674083
  38.7438553  61.8564913  29.2164083  38.0728553  63.0274913  29.4554083
  38.6278553  62.5044913  29.6404083  48.6138553  60.2444913  28.1634083
  47.9518553  60.5724913  28.6264083  48.8008553  60.8784913  27.5944083
  48.5438553  60.3864913  28.1474083  45.2588553  56.1504913  31.5924083
  45.4078553  55.3254913  31.3494083  45.6378553  56.2054913  32.3764083
  45.3368553  56.0364913  31.6724083  46.8068553  58.2134913  21.6744083
  47.2968553  58.9304913  21.5974083  46.0168553  58.4744913  21.4114083
  46.7628553  58.3574913  21.6244083  36.5178553  63.8864913  35.3264083
  36.4808553  64.3874913  34.6124083  36.8488553  63.1344913  35.0314083
  36.5608553  63.8484913  35.1774083  48.1208553  66.0914913  33.5844083
  48.6048553  66.8094913  33.6824083  48.5148553  65.6644913  32.9334083
  48.2508553  66.1344913  33.5024083  42.4168553  68.9364913  34.7614083
  42.7708553  68.7584913  35.5384083  41.9808553  68.2074913  34.5624083
  42.4048553  68.8024913  34.8474083  43.3888553  59.6834913  27.3994083
  43.8688553  60.3824913  27.6074083  43.7618553  59.0364913  27.8504083
  43.5148553  59.6914913  27.4964083  45.5778553  62.8524913  19.6734083
  45.5698553  63.5744913  19.1834083  44.9388553  62.9874913  20.2504083
  45.4828553  62.9794913  19.6864083  50.5498553  66.7224913  23.6544083
  50.9058553  66.3724913  24.3694083  50.5418553  66.0614913  23.0844083
  50.6018553  66.5724913  23.6754083  46.6078553  66.6394913  26.8984083
  45.8108553  66.8634913  27.1724083  46.8658553  66.0454913  27.4834083
  46.5278553  66.5844913  27.0254083  40.1708553  55.1944913  19.3344083
  40.2678553  55.0874913  20.1954083  39.4628553  55.7004913  19.2694083
  40.0808553  55.2534913  19.4524083  49.8678553  64.6374913  31.7444083
  49.9228553  64.7624913  30.8824083  50.6208553  64.9574913  32.0464083
  49.9868553  64.7024913  31.6614083  50.8998553  54.9354913  34.7314083
  50.2628553  54.5354913  34.2894083  50.9258553  54.5044913  35.4894083
  50.8098553  54.8134913  34.7774083  37.2928553  63.5014913  20.5774083
  37.6168553  62.7224913  20.3554083  37.9388553  63.8694913  21.0324083
  37.4358553  63.4404913  20.6114083  45.5988553  64.4434913  31.3444083
  45.4438553  65.0534913  31.9484083  46.1328553  63.8854913  31.7504083
  45.6548553  64.4514913  31.4934083  34.2898553  55.1624913  21.5454083
  34.4188553  54.4544913  21.0534083  33.9228553  54.8444913  22.2704083
  34.2548553  55.0104913  21.5804083  43.9828553  62.8434913  22.0024083
  44.0418553  63.4934913  22.5814083  43.7938553  62.1474913  22.4934083
  43.9638553  62.8364913  22.1604083  49.2088553  67.1724913  27.8714083
  48.7298553  67.4704913  27.2054083  48.8528553  66.3964913  28.0494083
  49.0858553  67.1014913  27.7994083  38.4788553  57.3604913  18.5144083
  37.9678553  57.4134913  17.8084083  39.2628553  57.6004913  18.2184083
  38.5188553  57.4034913  18.3664083  43.2058553  64.8904913  26.4334083
  42.3588553  64.6964913  26.5144083  43.5298553  64.7254913  27.2264083
  43.1278553  64.8374913  26.5624083  37.0538553  64.5834913  28.7494083
  37.7758553  65.0714913  28.7124083  36.7838553  64.5534913  27.9204083
  37.1208553  64.6514913  28.6214083  40.2838553  59.7544913  25.4844083
  41.1298553  59.5644913  25.5824083  39.9138553  58.9774913  25.3464083
  40.3538553  59.6114913  25.4784083  35.1048553  61.0924913  22.1394083
  35.5938553  60.8004913  22.8004083  35.2338553  60.4994913  21.5124083
  35.1958553  60.9614913  22.1444083  50.1398553  64.1144913  28.9904083
  50.1328553  63.3384913  29.3884083  49.2988553  64.3484913  28.9834083
  50.0148553  64.0344913  29.0484083  39.6298553  62.5264913  17.6254083
  39.0198553  62.1214913  18.0994083  39.2438553  62.6444913  16.8524083
  39.4828553  62.4834913  17.5814083  36.4488553  65.6354913  33.0274083
  36.0278553  65.1174913  32.4664083  36.0968553  66.4214913  32.8844083
  36.3348553  65.6754913  32.9234083  51.3958553  64.1854913  26.4274083
  51.1098553  64.5864913  27.1474083  52.2558553  64.1234913  26.5544083
  51.4808553  64.2354913  26.5524083  41.0848553  60.9874913  20.3354083
  41.3568553  61.8134913  20.4024083  40.2218553  61.0624913  20.2394083
  40.9978553  61.1204913  20.3304083  49.0578553  58.1094913  34.9674083
  48.5328553  58.5684913  35.4914083  48.6968553  57.3144913  34.9614083
  48.9268553  58.0594913  35.0434083  34.5648553  56.9574913  26.8714083
  34.6088553  57.3014913  26.0704083  35.3198553  57.1944913  27.2384083
  34.6828553  57.0434913  26.8074083  52.5268553  69.8184913  26.9564083
  52.8168553  70.0754913  26.1754083  53.2218553  69.9144913  27.4754083
  52.6728553  69.8704913  26.9174083  47.5498553  61.6784913  35.0434083
  47.6228553  61.7824913  35.9064083  46.9158553  62.2364913  34.8224083
  47.4668553  61.7764913  35.1384083  49.8178553  61.9974913  33.4084083
  50.1368553  62.7834913  33.6114083  49.4478553  61.7274913  34.1514083
  49.8108553  62.0734913  33.5484083  49.1318553  68.4214913  18.9384083
  49.4658553  67.6154913  18.9734083  48.3768553  68.3494913  19.3684083
  49.0698553  68.2914913  19.0074083  49.6138553  60.2554913  24.5974083
  48.8688553  59.9324913  24.9154083  49.6158553  61.0814913  24.8774083
  49.5038553  60.3294913  24.6854083  52.5158553  62.5394913  36.1434083
  52.4638553  62.1984913  35.3424083  53.2528553  63.0064913  36.1214083
  52.6168553  62.5584913  36.0214083  52.0538553  66.2154913  32.3494083
  52.6818553  65.6664913  32.0934083  51.9928553  66.7804913  31.6874083
  52.1378553  66.2184913  32.2134083  46.5058553  66.2964913  18.3414083
  47.1898553  65.7824913  18.1724083  46.0888553  66.3424913  17.5764083
  46.5448553  66.2274913  18.2034083  41.1878553  67.4464913  29.6454083
  40.8898553  68.0384913  30.2124083  41.2428553  67.8884913  28.8964083
  41.1518553  67.5994913  29.6184083  39.1668553  66.3964913  33.0434083
  38.3608553  66.1064913  33.2104083  39.0778553  67.2644913  33.0494083
  39.0348553  66.4814913  33.0684083  48.5258553  56.5854913  32.0584083
  49.2698553  57.0374913  31.9954083  47.9598553  57.0554913  31.5894083
  48.5528553  56.7224913  31.9804083  43.7038553  63.8694913  29.1364083
  44.1798553  64.2434913  29.7644083  42.8808553  64.0034913  29.3954083
  43.6528553  63.9444913  29.2674083  40.4138553  59.4724913  31.8774083
  40.5748553  58.7284913  32.3044083  40.3688553  59.2234913  31.0424083
  40.4308553  59.3254913  31.8174083  49.8108553  54.5654913  29.7284083
  49.5308553  55.3904913  29.6844083  50.5268553  54.6184913  30.2244083
  49.8758553  54.6954913  29.7954083  42.1658553  55.2804913  31.7574083
  42.8708553  55.6004913  31.3554083  42.4068553  54.4734913  31.9844083
  42.3048553  55.2084913  31.7314083  41.1508553  69.4904913  27.7534083
  40.5268553  70.0724913  27.5714083  41.3988553  69.2044913  26.9674083
  41.0948553  69.5344913  27.6104083  45.4598553  66.1244913  34.7424083
  46.2168553  66.4104913  34.4164083  44.9128553  66.1764913  34.0644083
  45.4908553  66.1744913  34.5934083  49.3688553  68.6744913  33.2464083
  49.7148553  68.9444913  34.0004083  49.6628553  69.2564913  32.6664083
  49.4638553  68.8004913  33.2724083  51.2318553  60.8204913  18.5854083
  51.6098553  61.4974913  18.1854083  50.3898553  61.0444913  18.6164083
  51.1628553  60.9534913  18.5304083  42.7448553  64.2664913  17.6684083
  41.9398553  64.0894913  17.3834083  42.7118553  65.1174913  17.8604083
  42.6208553  64.3654913  17.6554083  38.6748553  60.3334913  27.8184083
  39.1148553  60.2304913  27.0724083  39.2198553  60.0204913  28.4234083
  38.8198553  60.2724913  27.7974083  46.6908553  59.4354913  33.4104083
  46.0428553  59.9054913  33.7584083  47.2558553  59.3464913  34.0694083
  46.6788553  59.4914913  33.5594083  46.3788553  60.9724913  29.7084083
  46.6808553  61.3924913  30.4114083  46.4148553  60.1324913  29.9404083
  46.4288553  60.9104913  29.8464083  48.9268553  60.4194913  21.9604083
  49.1338553  60.2184913  22.7844083  49.6828553  60.6874913  21.6184083
  49.0688553  60.4294913  22.0314083  42.2218553  55.3184913  27.8654083
  41.3958553  55.1694913  28.1024083  42.1818553  55.3534913  26.9944083
  42.0938553  55.3014913  27.7714083  49.9488553  56.5024913  23.4344083
  49.2348553  56.0314913  23.6054083  49.7868553  56.8434913  22.6484083
  49.8198553  56.4834913  23.3434083  50.3918553  64.4464913  21.8144083
  50.8678553  63.7174913  21.7664083  49.5708553  64.1604913  21.7384083
  50.3408553  64.2964913  21.7954083  43.8628553  66.3584913  32.6534083
  43.0678553  66.2944913  33.0044083  43.9338553  67.2054913  32.4584083
  43.7558553  66.4734913  32.6764083  34.7868553  55.7164913  33.9004083
  34.6468553  56.5114913  33.5694083  34.0008553  55.4734913  34.1894083
  34.6498553  55.7984913  33.8944083  37.8508553  58.4604913  21.1254083
  37.9768553  58.1314913  20.3274083  37.0388553  58.2114913  21.3244083
  37.7498553  58.3754913  21.0374083  46.6078553  65.6134913  24.1694083
  46.6838553  65.9544913  24.9684083  46.7768553  64.7664913  24.2904083
  46.6438553  65.5384913  24.3054083  44.1298553  64.8874913  23.7344083
  43.8318553  64.5724913  24.4914083  44.8248553  65.3604913  23.9694083
  44.1888553  64.9104913  23.8814083  44.3518553  69.0054913  31.7614083
  45.0388553  68.8914913  32.2864083  44.4858553  69.7964913  31.4174083
  44.4728553  69.1054913  31.7884083  52.5278553  61.6144913  33.5724083
  51.6728553  61.4924913  33.6984083  52.6808553  61.2194913  32.8094083
  52.4238553  61.5374913  33.4784083  47.0408553  62.2794913  32.1484083
  46.7858553  61.5604913  32.5704083  47.8618553  62.3954913  32.4184083
  47.1248553  62.1904913  32.2504083  44.9748553  63.4694913  35.3354083
  45.2978553  64.1554913  34.9034083  44.2708553  63.7924913  35.7374083
  44.9178553  63.6184913  35.3304083  44.7598553  66.9334913  29.1944083
  44.0658553  67.3354913  29.5374083  45.4368553  67.3664913  29.5334083
  44.7568553  67.0564913  29.2954083  50.1368553  69.5264913  35.7744083
  50.9128553  69.1364913  35.8574083  49.6678553  69.1904913  36.4294083
  50.1818553  69.4194913  35.8834083  37.8278553  60.4714913  31.5414083
  38.2028553  61.0904913  31.0544083  38.5018553  59.9974913  31.8264083
  37.9828553  60.4934913  31.5114083  35.6028553  58.9194913  30.8164083
  35.6798553  58.7504913  29.9634083  36.3488553  59.3254913  31.0134083
  35.7238553  58.9544913  30.7194083  51.1618553  61.5594913  21.2564083
  51.2648553  61.5014913  20.3924083  51.9028553  61.2274913  21.5744083
  51.2868553  61.5024913  21.1754083  38.1568553  56.3294913  33.2274083
  38.0758553  55.4854913  33.4334083  37.8428553  56.3734913  32.4144083
  38.0988553  56.2114913  33.1374083  45.0818553  68.5244913  22.3634083
  44.8768553  69.3574913  22.2044083  44.3068553  68.1424913  22.4854083
  44.9368553  68.5914913  22.3584083  50.2638553  61.7054913  30.6124083
  50.2618553  60.8424913  30.7364083  50.3308553  62.0294913  31.4194083
  50.2738553  61.6254913  30.7494083  34.9998553  64.1454913  31.0404083
  35.3198553  64.3644913  30.2594083  34.8998553  63.2804913  30.9854083
  35.0318553  64.0504913  30.9174083  36.4558553  60.0814913  17.6584083
  35.7838553  60.0954913  18.2144083  36.5508553  59.2334913  17.4744083
  36.3708553  59.9584913  17.7134083  46.1428553  56.5054913  34.3944083
  46.2348553  57.2174913  34.8884083  45.5058553  56.0604913  34.7914083
  46.0618553  56.5444913  34.5264083  45.1368553  56.6954913  25.2484083
  44.4368553  57.2134913  25.1924083  45.1748553  56.3154913  24.4644083
  45.0388553  56.7164913  25.1244083  40.4438553  68.7864913  18.7724083
  40.8848553  68.8664913  19.5204083  39.6388553  68.5704913  19.0304083
  40.3898553  68.7664913  18.9214083  48.7348553  57.2114913  28.0484083
  49.5898553  57.3104913  28.1934083  48.3658553  57.7644913  28.6134083
  48.8068553  57.3084913  28.1534083  39.7628553  63.4374913  32.4254083
  39.3668553  64.2114913  32.5004083  39.3568553  63.0644913  31.7494083
  39.6448553  63.4964913  32.3364083  49.0388553  62.4914913  26.5394083
  49.7048553  63.0324913  26.6994083  48.6938553  62.8024913  25.8004083
  49.0858553  62.6174913  26.4544083  37.7728553  67.8564913  19.3734083
  37.5288553  67.5494913  20.1534083  37.7398553  67.1534913  18.8574083
  37.7318553  67.7074913  19.4124083  40.5918553  66.1014913  18.1164083
  39.7738553  65.8334913  18.2564083  40.5638553  66.9534913  18.3014083
  40.4668553  66.1884913  18.1644083  40.1918553  56.4144913  29.8754083
  39.3278553  56.4984913  29.9554083  40.4118553  55.9004913  30.5444083
  40.0968553  56.3514913  29.9864083  52.2098553  55.0494913  31.2044083
  52.1578553  55.0054913  32.0744083  52.8968553  54.5464913  31.0144083
  52.3038553  54.9694913  31.3044083  44.2948553  57.1624913  28.2494083
  43.5578553  56.7084913  28.3624083  44.8658553  56.7604913  28.7724083
  44.2698553  57.0354913  28.3434083  47.0268553  68.0104913  30.0374083
  47.2328553  68.3114913  30.8294083  46.9658553  68.7324913  29.5524083
  47.0478553  68.1614913  30.0824083  41.7978553  61.4914913  33.4534083
  41.4758553  60.9154913  32.8834083  41.4388553  62.2464913  33.2074083
  41.6978553  61.5174913  33.3334083  42.5938553  54.7434913  18.0804083
  42.6718553  54.9904913  17.2474083  41.8508553  55.1204913  18.3384083
  42.4958553  54.8354913  17.9954083  51.8388553  66.6494913  29.4954083
  51.8068553  65.7874913  29.3604083  51.1458553  66.9514913  29.0614083
  51.7318553  66.5664913  29.4114083  49.9438553  69.9094913  28.2924083
  50.4708553  69.8264913  27.6014083  49.5528553  69.1314913  28.3464083
  49.9638553  69.7824913  28.1984083  37.4118553  56.4974913  30.5234083
  37.0688553  55.7304913  30.2894083  36.7168553  57.0214913  30.5874083
  37.2588553  56.4614913  30.4984083  46.4578553  55.3534913  27.5004083
  47.1278553  55.8974913  27.6274083  45.9548553  55.7774913  26.9274083
  46.4828553  55.4964913  27.4344083  45.8168553  61.1614913  24.9934083
  46.3678553  60.5544913  25.2934083  45.3918553  61.4244913  25.7084083
  45.8358553  61.1104913  25.1424083  36.0648553  59.8114913  24.4794083
  35.6968553  60.1134913  25.2104083  36.5988553  59.1824913  24.7634083
  36.0888553  59.7634913  24.6294083  35.7528553  68.2194913  31.9904083
  35.1788553  68.6354913  32.4994083  36.4858553  68.6844913  32.0854083
  35.7768553  68.3494913  32.0794083  47.7868553  62.9924913  21.5554083
  47.8548553  62.1424913  21.7364083  46.9638553  63.0784913  21.2774083
  47.6748553  62.8794913  21.5414083  41.7058553  63.8834913  20.4934083
  41.8058553  64.0224913  19.6384083  42.5238553  63.8234913  20.7894083
  41.8408553  63.8944913  20.4104083  51.0608553  64.3654913  34.7064083
  51.6948553  64.1954913  35.2804083  51.4778553  64.7684913  34.0544083
  51.2158553  64.4004913  34.6954083  46.9408553  68.2124913  20.2954083
  46.6898553  68.0844913  21.1214083  46.6238553  67.5174913  19.8744083
  46.8568553  68.0914913  20.3554083  51.6858553  58.9294913  35.4444083
  51.4898553  59.5734913  35.9994083  50.9638553  58.4394913  35.4364083
  51.5508553  58.9524913  35.5254083  51.5848553  59.8704913  28.4154083
  50.7518553  60.1204913  28.3434083  51.5288553  59.0304913  28.6444083
  51.4538553  59.7834913  28.4384083  40.8448553  56.8584913  33.6094083
  41.0788553  56.2824913  32.9964083  40.0028553  56.6774913  33.7504083
  40.7548553  56.7464913  33.5394083  48.4718553  64.4764913  36.0614083
  49.3428553  64.4404913  36.0254083  48.2528553  64.8964913  35.3294083
  48.5688553  64.5324913  35.9484083  43.8268553  66.4204913  19.7254083
  44.5438553  66.0734913  19.3694083  43.7928553  67.2204913  19.3774083
  43.9278553  66.4874913  19.6214083  45.2358553  55.0614913   3.9641673
  44.9908553  55.5494913   3.2841673  46.0988553  54.9884913   3.8641673
  45.3268553  55.1224913   3.8491673  45.0448553  61.9774913   8.6351673
  44.5208553  62.5734913   8.9981673  45.4418553  61.6094913   9.3191673
  45.0258553  62.0114913   8.7901673  34.9138553  66.1174913   4.0911673
  34.4728553  66.2354913   4.8341673  34.6308553  65.3424913   3.8061673
  34.8068553  66.0204913   4.1591673  47.7158553  63.0444913   5.3111673
  47.7958553  63.0484913   4.4421673  47.1318553  62.4124913   5.4601673
  47.6408553  62.9514913   5.2051673  37.4228553  66.8134913   3.1701673
  38.0308553  66.6434913   3.7731673  36.6718553  66.6734913   3.5911673
  37.4018553  66.7674913   3.3211673  41.7048553  56.1484913   3.1191673
  41.6348553  56.8254913   2.5731673  42.4458553  55.7604913   2.8701673
  41.8038553  56.1914913   3.0011673  34.8538553  68.8524913  10.3461673
  34.9828553  68.5724913  11.1621673  34.2438553  68.3114913  10.0371673
  34.7828553  68.7314913  10.4211673  41.4278553  66.3774913  15.4131673
  41.1918553  66.3744913  16.2531673  40.6798553  66.2294913  14.9891673
  41.2818553  66.3544913  15.4741673  36.2998553  63.3734913   4.5481673
  35.8378553  62.9814913   3.9211673  36.9998553  62.8604913   4.6401673
  36.3348553  63.2404913   4.4691673  40.8078553  58.9834913   9.8951673
  41.4858553  59.0014913   9.3461673  40.7628553  58.1474913  10.1401673
  40.9008553  58.8624913   9.8501673  38.3008553  61.4734913   4.5711673
  39.1178553  61.2864913   4.8141673  37.8238553  60.8594913   4.9671673
  38.3508553  61.3554913   4.6661673  42.5048553  67.4544913   7.1811673
  42.8528553  66.6554913   7.2111673  43.1698553  67.9584913   6.9261673
  42.6548553  67.4104913   7.1481673  42.5618553  66.9034913   3.3921673
  42.8928553  66.2594913   3.8781673  42.8018553  66.6924913   2.5811673
  42.6458553  66.7774913   3.3441673  44.5298553  61.0344913  14.7311673
  43.6818553  60.9354913  14.5531673  44.5588553  61.7794913  15.1851673
  44.4088553  61.1304913  14.7721673  38.8978553  56.5674913   3.8371673
  38.6018553  57.0684913   3.1871673  39.7648553  56.6454913   3.7801673
  38.9818553  56.6534913   3.7331673  49.0878553  53.9944913  13.8451673
  48.9298553  54.7634913  13.4631673  48.3158553  53.7744913  14.1891673
  48.9498553  54.0754913  13.8401673  41.8768553  55.7094913   6.0601673
  41.9498553  56.5694913   6.1891673  41.8388553  55.6344913   5.1921673
  41.8818553  55.8254913   5.9511673  34.7558553  61.1344913   7.5611673
  34.4998553  61.9654913   7.4861673  34.0918553  60.7514913   7.9781673
  34.6198553  61.2004913   7.6121673  40.5058553  68.6884913   2.9411673
  39.9268553  68.4134913   3.5331673  41.1298553  68.0794913   2.9661673
  40.5128553  68.5584913   3.0321673  37.7848553  55.9514913   8.0521673
  37.2638553  55.3234913   7.7441673  38.3758553  55.5144913   8.5231673
  37.7958553  55.7934913   8.0761673  41.0908553  58.0844913  17.3501673
  41.2078553  57.6304913  16.6141673  41.3788553  58.8824913  17.1471673
  41.1508553  58.1354913  17.2111673  51.9438553  58.6084913   4.6541673
  51.5978553  59.2864913   5.0801673  51.3078553  58.0104913   4.6701673
  51.7988553  58.6204913   4.7191673  36.8238553  57.6814913  16.3341673
  36.0458553  57.2914913  16.2621673  37.3148553  57.2694913  15.7431673
  36.7808553  57.5624913  16.2361673  37.0288553  68.0014913   6.8921673
  37.4518553  67.6454913   6.2181673  37.3528553  67.5794913   7.5841673
  37.1388553  67.8864913   6.8951673  43.4728553  55.3244913  15.5021673
  43.6508553  54.5154913  15.2271673  43.3298553  55.7654913  14.7631673
  43.4778553  55.2704913  15.3521673  44.0668553  60.2504913   4.2751673
  44.3538553  60.0184913   3.4851673  44.7988553  60.3294913   4.7441673
  44.2168553  60.2274913   4.2281673  51.6188553  56.9314913  10.0231673
  52.3758553  57.0034913   9.5951673  51.6818553  56.1584913  10.4221673
  51.7398553  56.8284913  10.0181673  34.1718553  58.2294913  13.9201673
  34.1678553  58.8164913  14.5661673  34.7658553  58.5414913  13.3631673
  34.2588553  58.3624913  13.9331673  46.5098553  68.5634913  14.4621673
  46.4758553  68.9454913  15.2461673  47.3638553  68.5214913  14.2911673
  46.6308553  68.6134913  14.5531673  35.1088553  57.8244913   2.8351673
  34.9948553  56.9604913   2.8661673  34.6338553  58.1184913   3.5051673
  35.0218553  57.7404913   2.9381673  43.0108553  58.3404913   5.9931673
  43.0848553  58.9084913   5.3351673  43.1318553  58.8324913   6.7031673
  43.0388553  58.4974913   6.0011673  48.2358553  68.1754913   4.4051673
  48.9368553  67.6934913   4.5941673  47.5758553  67.6064913   4.4501673
  48.2418553  68.0204913   4.4391673  38.6118553  69.0854913  13.6171673
  39.4528553  69.1484913  13.3951673  38.5748553  69.4824913  14.3931673
  38.7308553  69.1534913  13.6991673  37.6188553  54.1634913   4.3411673
  38.1548553  54.8514913   4.3311673  37.6218553  53.8894913   3.5131673
  37.6978553  54.2244913   4.2171673  40.5748553  64.5964913   8.3661673
  40.7468553  64.3864913   9.1951673  39.9198553  64.0624913   8.1501673
  40.5038553  64.4864913   8.4571673  46.8028553  58.5104913  11.8811673
  46.7078553  58.8294913  12.6871673  46.2098553  57.8714913  11.8431673
  46.7008553  58.4624913  11.9951673  41.3248553  64.5344913  10.9561673
  41.3778553  65.3814913  11.1581673  41.0398553  64.1644913  11.6931673
  41.2908553  64.6044913  11.0941673  47.5018553  65.2294913  10.0861673
  46.9878553  64.8174913  10.6571673  47.3758553  66.0734913  10.2671673
  47.4078553  65.2934913  10.1971673  48.0588553  54.4544913   4.7171673
  48.1078553  54.1364913   5.5281673  48.3818553  53.8104913   4.2241673
  48.1138553  54.3124913   4.7641673  34.1458553  68.9054913  17.1671673
  34.9018553  69.2544913  17.4251673  34.3228553  68.0524913  17.1101673
  34.2838553  68.8304913  17.1971673  50.5228553  58.6904913  13.0251673
  51.2948553  58.4654913  13.3621673  50.0478553  58.9074913  13.7251673
  50.5668553  58.6894913  13.1781673  38.0668553  57.9734913   5.9951673
  38.3388553  57.5434913   5.2871673  37.8908553  57.3374913   6.5661673
  38.0808553  57.8164913   5.9751673  37.8908553  65.4004913   5.5441673
  38.7418553  65.3204913   5.3711673  37.5338553  64.7184913   5.1321673
  37.9638553  65.2874913   5.4571673  36.2078553  59.0754913   9.0771673
  37.0508553  59.2954913   9.0341673  35.8188553  59.6484913   8.5461673
  36.2748553  59.1924913   8.9921673  40.2588553  65.4074913   3.7791673
  40.9718553  65.9024913   3.8691673  40.4808553  64.8404913   3.1531673
  40.3968553  65.3964913   3.7001673  34.4148553  67.0504913   7.0991673
  33.7478553  67.5384913   7.3751673  35.0948553  67.5954913   7.1281673
  34.4168553  67.2024913   7.1441673  42.0618553  60.7604913  17.1951673
  41.5778553  61.3374913  17.6371673  42.0338553  61.0554913  16.3741673
  41.9858553  60.8894913  17.1391673  53.1598553  61.4444913  11.8071673
  53.3748553  60.6444913  11.5311673  52.3098553  61.5044913  11.6181673
  53.0658553  61.3354913  11.7381673  34.4808553  63.7344913   2.2021673
  34.2958553  62.8954913   2.3541673  35.1398553  63.6984913   1.6321673
  34.5508553  63.6054913   2.1401673  44.7818553  69.1104913   6.1061673
  44.2588553  69.7444913   5.8131673  45.0918553  68.7464913   5.3771673
  44.7498553  69.1504913   5.9551673  34.6528553  67.8984913   1.7771673
  35.2048553  68.4674913   2.1411673  34.4208553  67.3834913   2.4421673
  34.6998553  67.9064913   1.9291673  38.8568553  66.8984913   8.8661673
  39.3238553  67.1874913   9.5441673  39.4288553  66.4204913   8.4121673
  39.0108553  66.8704913   8.8991673  47.2928553  58.9124913   6.6031673
  47.6368553  59.0644913   7.3901673  46.8398553  58.1744913   6.7161673
  47.2768553  58.8254913   6.7361673  35.4228553  64.5684913   7.4101673
  35.8538553  64.4394913   6.6631673  35.2178553  65.4164913   7.3841673
  35.4558553  64.6744913   7.2961673  39.5068553  68.0844913   5.6921673
  39.6328553  68.9274913   5.8791673  40.1748553  67.6854913   6.0881673
  39.6248553  68.1504913   5.7781673  37.6368553  61.5674913  15.5541673
  37.1008553  61.0614913  16.0221673  37.6568553  61.1774913  14.7741673
  37.5598553  61.4344913  15.5081673  38.2888553  62.7944913   7.2931673
  37.5078553  62.7354913   6.9101673  38.3608553  62.0424913   7.7301673
  38.1838553  62.6754913   7.3011673  38.7188553  62.5314913  10.7611673
  38.7438553  61.8564913  10.2101673  38.0728553  63.0274913  10.4491673
  38.6278553  62.5044913  10.6341673  48.6138553  60.2444913   9.1571673
  47.9518553  60.5724913   9.6201673  48.8008553  60.8784913   8.5881673
  48.5438553  60.3864913   9.1411673  45.2588553  56.1504913  12.5861673
  45.4078553  55.3254913  12.3431673  45.6378553  56.2054913  13.3701673
  45.3368553  56.0364913  12.6661673  46.8068553  58.2134913   2.6681673
  47.2968553  58.9304913   2.5911673  46.0168553  58.4744913   2.4051673
  46.7628553  58.3574913   2.6181673  36.5178553  63.8864913  16.3201673
  36.4808553  64.3874913  15.6061673  36.8488553  63.1344913  16.0251673
  36.5608553  63.8484913  16.1711673  48.1208553  66.0914913  14.5781673
  48.6048553  66.8094913  14.6761673  48.5148553  65.6644913  13.9271673
  48.2508553  66.1344913  14.4961673  42.4168553  68.9364913  15.7551673
  42.7708553  68.7584913  16.5321673  41.9808553  68.2074913  15.5561673
  42.4048553  68.8024913  15.8411673  43.3888553  59.6834913   8.3931673
  43.8688553  60.3824913   8.6011673  43.7618553  59.0364913   8.8441673
  43.5148553  59.6914913   8.4901673  50.5498553  66.7224913   4.6481673
  50.9058553  66.3724913   5.3631673  50.5418553  66.0614913   4.0781673
  50.6018553  66.5724913   4.6691673  46.6078553  66.6394913   7.8921673
  45.8108553  66.8634913   8.1661673  46.8658553  66.0454913   8.4771673
  46.5278553  66.5844913   8.0191673  49.8678553  64.6374913  12.7381673
  49.9228553  64.7624913  11.8761673  50.6208553  64.9574913  13.0401673
  49.9868553  64.7024913  12.6551673  50.8998553  54.9354913  15.7251673
  50.2628553  54.5354913  15.2831673  50.9258553  54.5044913  16.4831673
  50.8098553  54.8134913  15.7711673  45.5988553  64.4434913  12.3381673
  45.4438553  65.0534913  12.9421673  46.1328553  63.8854913  12.7441673
  45.6548553  64.4514913  12.4871673  34.2898553  55.1624913   2.5391673
  34.4188553  54.4544913   2.0471673  33.9228553  54.8444913   3.2641673
  34.2548553  55.0104913   2.5741673  43.9828553  62.8434913   2.9961673
  44.0418553  63.4934913   3.5751673  43.7938553  62.1474913   3.4871673
  43.9638553  62.8364913   3.1541673  49.2088553  67.1724913   8.8651673
  48.7298553  67.4704913   8.1991673  48.8528553  66.3964913   9.0431673
  49.0858553  67.1014913   8.7931673  43.2058553  64.8904913   7.4271673
  42.3588553  64.6964913   7.5081673  43.5298553  64.7254913   8.2201673
  43.1278553  64.8374913   7.5561673  37.0538553  64.5834913   9.7431673
  37.7758553  65.0714913   9.7061673  36.7838553  64.5534913   8.9141673
  37.1208553  64.6514913   9.6151673  40.2838553  59.7544913   6.4781673
  41.1298553  59.5644913   6.5761673  39.9138553  58.9774913   6.3401673
  40.3538553  59.6114913   6.4721673  35.1048553  61.0924913   3.1331673
  35.5938553  60.8004913   3.7941673  35.2338553  60.4994913   2.5061673
  35.1958553  60.9614913   3.1381673  50.1398553  64.1144913   9.9841673
  50.1328553  63.3384913  10.3821673  49.2988553  64.3484913   9.9771673
  50.0148553  64.0344913  10.0421673  36.4488553  65.6354913  14.0211673
  36.0278553  65.1174913  13.4601673  36.0968553  66.4214913  13.8781673
  36.3348553  65.6754913  13.9171673  51.3958553  64.1854913   7.4211673
  51.1098553  64.5864913   8.1411673  52.2558553  64.1234913   7.5481673
  51.4808553  64.2354913   7.5461673  49.0578553  58.1094913  15.9611673
  48.5328553  58.5684913  16.4851673  48.6968553  57.3144913  15.9551673
  48.9268553  58.0594913  16.0371673  34.5648553  56.9574913   7.8651673
  34.6088553  57.3014913   7.0641673  35.3198553  57.1944913   8.2321673
  34.6828553  57.0434913   7.8011673  52.5268553  69.8184913   7.9501673
  52.8168553  70.0754913   7.1691673  53.2218553  69.9144913   8.4691673
  52.6728553  69.8704913   7.9111673  47.5498553  61.6784913  16.0371673
  47.6228553  61.7824913  16.9001673  46.9158553  62.2364913  15.8161673
  47.4668553  61.7764913  16.1321673  49.8178553  61.9974913  14.4021673
  50.1368553  62.7834913  14.6051673  49.4478553  61.7274913  15.1451673
  49.8108553  62.0734913  14.5421673  49.6138553  60.2554913   5.5911673
  48.8688553  59.9324913   5.9091673  49.6158553  61.0814913   5.8711673
  49.5038553  60.3294913   5.6791673  52.5158553  62.5394913  17.1371673
  52.4638553  62.1984913  16.3361673  53.2528553  63.0064913  17.1151673
  52.6168553  62.5584913  17.0151673  52.0538553  66.2154913  13.3431673
  52.6818553  65.6664913  13.0871673  51.9928553  66.7804913  12.6811673
  52.1378553  66.2184913  13.2071673  41.1878553  67.4464913  10.6391673
  40.8898553  68.0384913  11.2061673  41.2428553  67.8884913   9.8901673
  41.1518553  67.5994913  10.6121673  39.1668553  66.3964913  14.0371673
  38.3608553  66.1064913  14.2041673  39.0778553  67.2644913  14.0431673
  39.0348553  66.4814913  14.0621673  48.5258553  56.5854913  13.0521673
  49.2698553  57.0374913  12.9891673  47.9598553  57.0554913  12.5831673
  48.5528553  56.7224913  12.9741673  43.7038553  63.8694913  10.1301673
  44.1798553  64.2434913  10.7581673  42.8808553  64.0034913  10.3891673
  43.6528553  63.9444913  10.2611673  40.4138553  59.4724913  12.8711673
  40.5748553  58.7284913  13.2981673  40.3688553  59.2234913  12.0361673
  40.4308553  59.3254913  12.8111673  49.8108553  54.5654913  10.7221673
  49.5308553  55.3904913  10.6781673  50.5268553  54.6184913  11.2181673
  49.8758553  54.6954913  10.7891673  42.1658553  55.2804913  12.7511673
  42.8708553  55.6004913  12.3491673  42.4068553  54.4734913  12.9781673
  42.3048553  55.2084913  12.7251673  41.1508553  69.4904913   8.7471673
  40.5268553  70.0724913   8.5651673  41.3988553  69.2044913   7.9611673
  41.0948553  69.5344913   8.6041673  45.4598553  66.1244913  15.7361673
  46.2168553  66.4104913  15.4101673  44.9128553  66.1764913  15.0581673
  45.4908553  66.1744913  15.5871673  49.3688553  68.6744913  14.2401673
  49.7148553  68.9444913  14.9941673  49.6628553  69.2564913  13.6601673
  49.4638553  68.8004913  14.2661673  38.6748553  60.3334913   8.8121673
  39.1148553  60.2304913   8.0661673  39.2198553  60.0204913   9.4171673
  38.8198553  60.2724913   8.7911673  46.6908553  59.4354913  14.4041673
  46.0428553  59.9054913  14.7521673  47.2558553  59.3464913  15.0631673
  46.6788553  59.4914913  14.5531673  46.3788553  60.9724913  10.7021673
  46.6808553  61.3924913  11.4051673  46.4148553  60.1324913  10.9341673
  46.4288553  60.9104913  10.8401673  48.9268553  60.4194913   2.9541673
  49.1338553  60.2184913   3.7781673  49.6828553  60.6874913   2.6121673
  49.0688553  60.4294913   3.0251673  42.2218553  55.3184913   8.8591673
  41.3958553  55.1694913   9.0961673  42.1818553  55.3534913   7.9881673
  42.0938553  55.3014913   8.7651673  49.9488553  56.5024913   4.4281673
  49.2348553  56.0314913   4.5991673  49.7868553  56.8434913   3.6421673
  49.8198553  56.4834913   4.3371673  50.3918553  64.4464913   2.8081673
  50.8678553  63.7174913   2.7601673  49.5708553  64.1604913   2.7321673
  50.3408553  64.2964913   2.7891673  43.8628553  66.3584913  13.6471673
  43.0678553  66.2944913  13.9981673  43.9338553  67.2054913  13.4521673
  43.7558553  66.4734913  13.6701673  34.7868553  55.7164913  14.8941673
  34.6468553  56.5114913  14.5631673  34.0008553  55.4734913  15.1831673
  34.6498553  55.7984913  14.8881673  46.6078553  65.6134913   5.1631673
  46.6838553  65.9544913   5.9621673  46.7768553  64.7664913   5.2841673
  46.6438553  65.5384913   5.2991673  44.1298553  64.8874913   4.7281673
  43.8318553  64.5724913   5.4851673  44.8248553  65.3604913   4.9631673
  44.1888553  64.9104913   4.8751673  44.3518553  69.0054913  12.7551673
  45.0388553  68.8914913  13.2801673  44.4858553  69.7964913  12.4111673
  44.4728553  69.1054913  12.7821673  52.5278553  61.6144913  14.5661673
  51.6728553  61.4924913  14.6921673  52.6808553  61.2194913  13.8031673
  52.4238553  61.5374913  14.4721673  47.0408553  62.2794913  13.1421673
  46.7858553  61.5604913  13.5641673  47.8618553  62.3954913  13.4121673
  47.1248553  62.1904913  13.2441673  44.9748553  63.4694913  16.3291673
  45.2978553  64.1554913  15.8971673  44.2708553  63.7924913  16.7311673
  44.9178553  63.6184913  16.3241673  44.7598553  66.9334913  10.1881673
  44.0658553  67.3354913  10.5311673  45.4368553  67.3664913  10.5271673
  44.7568553  67.0564913  10.2891673  50.1368553  69.5264913  16.7681673
  50.9128553  69.1364913  16.8511673  49.6678553  69.1904913  17.4231673
  50.1818553  69.4194913  16.8771673  37.8278553  60.4714913  12.5351673
  38.2028553  61.0904913  12.0481673  38.5018553  59.9974913  12.8201673
  37.9828553  60.4934913  12.5051673  35.6028553  58.9194913  11.8101673
  35.6798553  58.7504913  10.9571673  36.3488553  59.3254913  12.0071673
  35.7238553  58.9544913  11.7131673  38.1568553  56.3294913  14.2211673
  38.0758553  55.4854913  14.4271673  37.8428553  56.3734913  13.4081673
  38.0988553  56.2114913  14.1311673  45.0818553  68.5244913   3.3571673
  44.8768553  69.3574913   3.1981673  44.3068553  68.1424913   3.4791673
  44.9368553  68.5914913   3.3521673  50.2638553  61.7054913  11.6061673
  50.2618553  60.8424913  11.7301673  50.3308553  62.0294913  12.4131673
  50.2738553  61.6254913  11.7431673  34.9998553  64.1454913  12.0341673
  35.3198553  64.3644913  11.2531673  34.8998553  63.2804913  11.9791673
  35.0318553  64.0504913  11.9111673  46.1428553  56.5054913  15.3881673
  46.2348553  57.2174913  15.8821673  45.5058553  56.0604913  15.7851673
  46.0618553  56.5444913  15.5201673  45.1368553  56.6954913   6.2421673
  44.4368553  57.2134913   6.1861673  45.1748553  56.3154913   5.4581673
  45.0388553  56.7164913   6.1181673  48.7348553  57.2114913   9.0421673
  49.5898553  57.3104913   9.1871673  48.3658553  57.7644913   9.6071673
  48.8068553  57.3084913   9.1471673  39.7628553  63.4374913  13.4191673
  39.3668553  64.2114913  13.4941673  39.3568553  63.0644913  12.7431673
  39.6448553  63.4964913  13.3301673  49.0388553  62.4914913   7.5331673
  49.7048553  63.0324913   7.6931673  48.6938553  62.8024913   6.7941673
  49.0858553  62.6174913   7.4481673  40.1918553  56.4144913  10.8691673
  39.3278553  56.4984913  10.9491673  40.4118553  55.9004913  11.5381673
  40.0968553  56.3514913  10.9801673  52.2098553  55.0494913  12.1981673
  52.1578553  55.0054913  13.0681673  52.8968553  54.5464913  12.0081673
  52.3038553  54.9694913  12.2981673  44.2948553  57.1624913   9.2431673
  43.5578553  56.7084913   9.3561673  44.8658553  56.7604913   9.7661673
  44.2698553  57.0354913   9.3371673  47.0268553  68.0104913  11.0311673
  47.2328553  68.3114913  11.8231673  46.9658553  68.7324913  10.5461673
  47.0478553  68.1614913  11.0761673  41.7978553  61.4914913  14.4471673
  41.4758553  60.9154913  13.8771673  41.4388553  62.2464913  14.2011673
  41.6978553  61.5174913  14.3271673  51.8388553  66.6494913  10.4891673
  51.8068553  65.7874913  10.3541673  51.1458553  66.9514913  10.0551673
  51.7318553  66.5664913  10.4051673  49.9438553  69.9094913   9.2861673
  50.4708553  69.8264913   8.5951673  49.5528553  69.1314913   9.3401673
  49.9638553  69.7824913   9.1921673  37.4118553  56.4974913  11.5171673
  37.0688553  55.7304913  11.2831673  36.7168553  57.0214913  11.5811673
  37.2588553  56.4614913  11.4921673  46.4578553  55.3534913   8.4941673
  47.1278553  55.8974913   8.6211673  45.9548553  55.7774913   7.9211673
  46.4828553  55.4964913   8.4281673  45.8168553  61.1614913   5.9871673
  46.3678553  60.5544913   6.2871673  45.3918553  61.4244913   6.7021673
  45.8358553  61.1104913   6.1361673  36.0648553  59.8114913   5.4731673
  35.6968553  60.1134913   6.2041673  36.5988553  59.1824913   5.7571673
  36.0888553  59.7634913   5.6231673  35.7528553  68.2194913  12.9841673
  35.1788553  68.6354913  13.4931673  36.4858553  68.6844913  13.0791673
  35.7768553  68.3494913  13.0731673  47.7868553  62.9924913   2.5491673
  47.8548553  62.1424913   2.7301673  46.9638553  63.0784913   2.2711673
  47.6748553  62.8794913   2.5351673  51.0608553  64.3654913  15.7001673
  51.6948553  64.1954913  16.2741673  51.4778553  64.7684913  15.0481673
  51.2158553  64.4004913  15.6891673  51.6858553  58.9294913  16.4381673
  51.4898553  59.5734913  16.9931673  50.9638553  58.4394913  16.4301673
  51.5508553  58.9524913  16.5191673  51.5848553  59.8704913   9.4091673
  50.7518553  60.1204913   9.3371673  51.5288553  59.0304913   9.6381673
  51.4538553  59.7834913   9.4321673  40.8448553  56.8584913  14.6031673
  41.0788553  56.2824913  13.9901673  40.0028553  56.6774913  14.7441673
  40.7548553  56.7464913  14.5331673  48.4718553  64.4764913  17.0551673
  49.3428553  64.4404913  17.0191673  48.2528553  64.8964913  16.3231673
  48.5688553  64.5324913  16.9421673  45.2358553  36.5833833  79.9891313
  44.9908553  37.0713833  79.3091313  46.0988553  36.5103833  79.8891313
  45.3268553  36.6443833  79.8741313  45.0448553  43.4993833  84.6601313
  44.5208553  44.0953833  85.0231313  45.4418553  43.1313833  85.3441313
  45.0258553  43.5333833  84.8151313  34.9138553  47.6393833  80.1161313
  34.4728553  47.7573833  80.8591313  34.6308553  46.8643833  79.8311313
  34.8068553  47.5423833  80.1841313  51.1888553  50.9403833  77.6311313
  51.8898553  50.4213833  77.6271313  50.6018553  50.4953833  77.1621313
  51.2058553  50.7973833  77.5611313  34.6568553  41.4313833  76.6231313
  33.8788553  41.5933833  76.2631313  34.6958553  40.5603833  76.6451313
  34.5478553  41.3263833  76.5731313  37.7958553  46.6943833  75.2951313
  37.4038553  46.3233833  74.6091313  37.7158553  46.0963833  75.9241313
  37.7258553  46.5513833  75.2861313  47.7158553  44.5663833  81.3361313
  47.7958553  44.5703833  80.4671313  47.1318553  43.9343833  81.4851313
  47.6408553  44.4733833  81.2301313  37.4228553  48.3353833  79.1951313
  38.0308553  48.1653833  79.7981313  36.6718553  48.1953833  79.6161313
  37.4018553  48.2893833  79.3461313  41.7048553  37.6703833  79.1441313
  41.6348553  38.3473833  78.5981313  42.4458553  37.2823833  78.8951313
  41.8038553  37.7133833  79.0261313  36.3138553  51.4263833  75.2721313
  36.7808553  51.5103833  74.5401313  36.7688553  50.8483833  75.7411313
  36.4498553  51.3533833  75.2331313  34.8538553  50.3743833  86.3711313
  34.9828553  50.0943833  87.1871313  34.2438553  49.8333833  86.0621313
  34.7828553  50.2533833  86.4461313  36.2998553  44.8953833  80.5731313
  35.8378553  44.5033833  79.9461313  36.9998553  44.3823833  80.6651313
  36.3348553  44.7623833  80.4941313  40.8078553  40.5053833  85.9201313
  41.4858553  40.5233833  85.3711313  40.7628553  39.6693833  86.1651313
  40.9008553  40.3843833  85.8751313  41.4098553  51.0913833  88.7011313
  41.5478553  51.8513833  88.2941313  42.2008553  50.7263833  88.7281313
  41.5468553  51.1503833  88.6451313  38.3008553  42.9953833  80.5961313
  39.1178553  42.8083833  80.8391313  37.8238553  42.3813833  80.9921313
  38.3508553  42.8773833  80.6911313  42.5048553  48.9763833  83.2061313
  42.8528553  48.1773833  83.2361313  43.1698553  49.4803833  82.9511313
  42.6548553  48.9323833  83.1731313  42.5618553  48.4253833  79.4171313
  42.8928553  47.7813833  79.9031313  42.8018553  48.2143833  78.6061313
  42.6458553  48.2993833  79.3691313  38.8978553  38.0893833  79.8621313
  38.6018553  38.5903833  79.2121313  39.7648553  38.1673833  79.8051313
  38.9818553  38.1753833  79.7581313  41.8768553  37.2313833  82.0851313
  41.9498553  38.0913833  82.2141313  41.8388553  37.1563833  81.2171313
  41.8818553  37.3473833  81.9761313  46.5498553  40.1573833  74.3841313
  46.0998553  40.8383833  74.6911313  46.6638553  39.6533833  75.0871313
  46.5008553  40.1833833  74.5331313  34.7558553  42.6563833  83.5861313
  34.4998553  43.4873833  83.5111313  34.0918553  42.2733833  84.0031313
  34.6198553  42.7223833  83.6371313  34.6658553  52.3663833  81.4861313
  34.0738553  52.9243833  81.1731313  35.0918553  52.0973833  80.7741313
  34.6418553  52.4083833  81.3351313  40.5058553  50.2103833  78.9661313
  39.9268553  49.9353833  79.5581313  41.1298553  49.6013833  78.9911313
  40.5128553  50.0803833  79.0571313  46.6488553  52.4983833  76.4881313
  47.3758553  52.9703833  76.5901313  46.8778553  51.7043833  76.7681313
  46.7908553  52.4513833  76.5451313  44.8168553  52.8903833  78.4781313
  45.0308553  53.4173833  79.1401313  45.5838553  52.7163833  78.0991313
  44.9618553  52.9423833  78.5201313  37.7848553  37.4733833  84.0771313
  37.2638553  36.8453833  83.7691313  38.3758553  37.0363833  84.5481313
  37.7958553  37.3153833  84.1011313  36.2108553  51.0363833  79.4171313
  36.8668553  50.4613833  79.4321313  36.5998553  51.7853833  79.1961313
  36.3658553  51.0613833  79.3871313  51.9438553  40.1303833  80.6791313
  51.5978553  40.8083833  81.1051313  51.3078553  39.5323833  80.6951313
  51.7988553  40.1423833  80.7441313  47.2558553  52.9003833  86.7831313
  47.9998553  53.3563833  86.7731313  47.1348553  52.6863833  85.9461313
  47.3478553  52.9363833  86.6581313  37.0288553  49.5233833  82.9171313
  37.4518553  49.1673833  82.2431313  37.3528553  49.1013833  83.6091313
  37.1388553  49.4083833  82.9201313  40.2598553  52.3753833  82.2131313
  41.1038553  52.4793833  82.0181313  39.9628553  53.1933833  82.2811313
  40.3408553  52.5113833  82.1941313  44.0668553  41.7723833  80.3001313
  44.3538553  41.5403833  79.5101313  44.7988553  41.8513833  80.7691313
  44.2168553  41.7493833  80.2531313  44.7888553  42.1113833  75.4211313
  45.0698553  42.8993833  75.6701313  44.0128553  42.2763833  75.0581313
  44.7158553  42.2523833  75.4041313  48.8298553  54.0853833  76.8881313
  49.4948553  53.9373833  76.3431313  49.1898553  54.0023833  77.6781313
  48.9818553  54.0513833  76.9241313  39.2578553  53.5943833  87.9531313
  39.5498553  53.5273833  88.7731313  38.6318553  52.9893833  87.9081313
  39.2088553  53.4953833  88.0681313  51.6188553  38.4533833  86.0481313
  52.3758553  38.5253833  85.6201313  51.6818553  37.6803833  86.4471313
  51.7398553  38.3503833  86.0431313  43.6478553  50.2823833  75.2371313
  43.4668553  50.8273833  75.8941313  44.4138553  50.5723833  74.9361313
  43.7338553  50.4063833  75.2901313  47.1548553  38.1783833  76.2911313
  47.6948553  37.4963833  76.3671313  47.2168553  38.5763833  77.0651313
  47.2438553  38.1363833  76.4171313  35.1088553  39.3463833  78.8601313
  34.9948553  38.4823833  78.8911313  34.6338553  39.6403833  79.5301313
  35.0218553  39.2623833  78.9631313  37.2508553  51.7563833  87.0751313
  36.5528553  51.2483833  87.2011313  37.5108553  51.5513833  86.2671313
  37.1858553  51.6513833  86.9741313  44.4128553  40.5543833  77.6051313
  43.9048553  39.8923833  77.3511313  44.4648553  41.0583833  76.8951313
  44.3458553  40.5313833  77.4631313  44.9618553  53.2493833  87.9851313
  45.7298553  53.1693833  87.5791313  44.3788553  53.1283833  87.3471313
  44.9888553  53.2193833  87.8311313  44.4128553  37.4953833  77.4961313
  43.9578553  37.0933833  76.8701313  45.1858553  37.6503833  77.1211313
  44.4598553  37.4593833  77.3481313  51.2388553  53.8523833  80.8861313
  50.7838553  54.5693833  81.0871313  50.6248553  53.2813833  80.6441313
  51.0808553  53.8743833  80.8801313  43.0108553  39.8623833  82.0181313
  43.0848553  40.4303833  81.3601313  43.1318553  40.3543833  82.7281313
  43.0388553  40.0193833  82.0261313  48.2358553  49.6973833  80.4301313
  48.9368553  49.2153833  80.6191313  47.5758553  49.1283833  80.4751313
  48.2418553  49.5423833  80.4641313  37.6188553  35.6853833  80.3661313
  38.1548553  36.3733833  80.3561313  37.6218553  35.4113833  79.5381313
  37.6978553  35.7463833  80.2421313  40.5748553  46.1183833  84.3911313
  40.7468553  45.9083833  85.2201313  39.9198553  45.5843833  84.1751313
  40.5038553  46.0083833  84.4821313  46.8028553  40.0323833  87.9061313
  46.7078553  40.3513833  88.7121313  46.2098553  39.3933833  87.8681313
  46.7008553  39.9843833  88.0201313  41.3248553  46.0563833  86.9811313
  41.3778553  46.9033833  87.1831313  41.0398553  45.6863833  87.7181313
  41.2908553  46.1263833  87.1191313  47.5018553  46.7513833  86.1111313
  46.9878553  46.3393833  86.6821313  47.3758553  47.5953833  86.2921313
  47.4078553  46.8153833  86.2221313  48.0588553  35.9763833  80.7421313
  48.1078553  35.6583833  81.5531313  48.3818553  35.3323833  80.2491313
  48.1138553  35.8343833  80.7891313  50.5228553  40.2123833  89.0501313
  51.2948553  39.9873833  89.3871313  50.0478553  40.4293833  89.7501313
  50.5668553  40.2113833  89.2031313  38.0668553  39.4953833  82.0201313
  38.3388553  39.0653833  81.3121313  37.8908553  38.8593833  82.5911313
  38.0808553  39.3383833  82.0001313  50.7548553  47.1903833  76.2381313
  50.8738553  46.9033833  77.0531313  51.5618553  47.2113833  75.9081313
  50.8908553  47.1513833  76.3101313  37.8908553  46.9223833  81.5691313
  38.7418553  46.8423833  81.3961313  37.5338553  46.2403833  81.1571313
  37.9638553  46.8093833  81.4821313  36.6578553  53.6473833  82.8061313
  35.9848553  53.1493833  82.5611313  37.0608553  53.8323833  82.0551313
  36.6178553  53.6013833  82.6591313  36.2078553  40.5973833  85.1021313
  37.0508553  40.8173833  85.0591313  35.8188553  41.1703833  84.5711313
  36.2748553  40.7143833  85.0171313  48.6498553  43.7273833  75.8231313
  48.4298553  44.4583833  75.4011313  48.2018553  43.7783833  76.5701313
  48.5508553  43.8423833  75.8711313  40.2588553  46.9293833  79.8041313
  40.9718553  47.4243833  79.8941313  40.4808553  46.3623833  79.1781313
  40.3968553  46.9183833  79.7251313  52.8368553  38.5883833  75.2761313
  52.1748553  38.0203833  75.2991313  52.6438553  39.1003833  74.5961313
  52.7108553  38.5803833  75.1791313  34.4148553  48.5723833  83.1241313
  33.7478553  49.0603833  83.4001313  35.0948553  49.1173833  83.1531313
  34.4168553  48.7243833  83.1691313  53.1598553  42.9663833  87.8321313
  53.3748553  42.1663833  87.5561313  52.3098553  43.0263833  87.6431313
  53.0658553  42.8573833  87.7631313  34.4808553  45.2563833  78.2271313
  34.2958553  44.4173833  78.3791313  35.1398553  45.2203833  77.6571313
  34.5508553  45.1273833  78.1651313  50.8388553  38.1463833  77.5551313
  51.5848553  37.7393833  77.7541313  51.1018553  38.8613833  77.1301313
  50.9878553  38.1923833  77.5221313  44.7818553  50.6323833  82.1311313
  44.2588553  51.2663833  81.8381313  45.0918553  50.2683833  81.4021313
  44.7498553  50.6723833  81.9801313  34.6528553  49.4203833  77.8021313
  35.2048553  49.9893833  78.1661313  34.4208553  48.9053833  78.4671313
  34.6998553  49.4283833  77.9541313  38.8568553  48.4203833  84.8911313
  39.3238553  48.7093833  85.5691313  39.4288553  47.9423833  84.4371313
  39.0108553  48.3923833  84.9241313  47.2928553  40.4343833  82.6281313
  47.6368553  40.5863833  83.4151313  46.8398553  39.6963833  82.7411313
  47.2768553  40.3473833  82.7611313  34.4828553  47.8693833  75.4301313
  35.2388553  47.4373833  75.4881313  34.4978553  48.4013833  76.1211313
  34.5968553  47.8843833  75.5411313  35.4228553  46.0903833  83.4351313
  35.8538553  45.9613833  82.6881313  35.2178553  46.9383833  83.4091313
  35.4558553  46.1963833  83.3211313  41.7688553  39.6543833  77.0851313
  41.7668553  39.5373833  76.2201313  41.5878553  40.5023833  77.1771313
  41.7418553  39.7623833  76.9711313  50.8228553  52.0813833  88.5821313
  50.1518553  52.5953833  88.8001313  50.8858553  52.1813833  87.7181313
  50.7328553  52.1723833  88.4871313  39.5068553  49.6063833  81.7171313
  39.6328553  50.4493833  81.9041313  40.1748553  49.2073833  82.1131313
  39.6248553  49.6723833  81.8031313  38.1218553  42.4863833  76.7191313
  37.9938553  42.0383833  77.4571313  37.5398553  42.1443833  76.1671313
  38.0168553  42.3693833  76.7471313  38.2888553  44.3163833  83.3181313
  37.5078553  44.2573833  82.9351313  38.3608553  43.5643833  83.7551313
  38.1838553  44.1973833  83.3261313  38.7188553  44.0533833  86.7861313
  38.7438553  43.3783833  86.2351313  38.0728553  44.5493833  86.4741313
  38.6278553  44.0263833  86.6591313  48.6138553  41.7663833  85.1821313
  47.9518553  42.0943833  85.6451313  48.8008553  42.4003833  84.6131313
  48.5438553  41.9083833  85.1661313  42.8188553  52.8303833  86.1781313
  42.5418553  52.1893833  85.6551313  42.6108553  53.5563833  85.7401313
  42.7478553  52.8433833  86.0361313  45.2588553  37.6723833  88.6111313
  45.4078553  36.8473833  88.3681313  45.6378553  37.7273833  89.3951313
  45.3368553  37.5583833  88.6911313  46.8068553  39.7353833  78.6931313
  47.2968553  40.4523833  78.6161313  46.0168553  39.9963833  78.4301313
  46.7628553  39.8793833  78.6431313  43.3888553  41.2053833  84.4181313
  43.8688553  41.9043833  84.6261313  43.7618553  40.5583833  84.8691313
  43.5148553  41.2133833  84.5151313  45.5778553  44.3743833  76.6921313
  45.5698553  45.0963833  76.2021313  44.9388553  44.5093833  77.2691313
  45.4828553  44.5013833  76.7051313  50.5498553  48.2443833  80.6731313
  50.9058553  47.8943833  81.3881313  50.5418553  47.5833833  80.1031313
  50.6018553  48.0943833  80.6941313  46.5948553  51.3103833  84.5171313
  45.9918553  51.0143833  83.9601313  47.1398553  51.7623833  84.0081313
  46.5858553  51.3333833  84.3591313  46.6078553  48.1613833  83.9171313
  45.8108553  48.3853833  84.1911313  46.8658553  47.5673833  84.5021313
  46.5278553  48.1063833  84.0441313  40.4998553  52.9733833  78.3651313
  40.3528553  52.1973833  78.7361313  41.1888553  52.8263833  77.8501313
  40.5798553  52.8363833  78.3441313  40.1708553  36.7163833  76.3531313
  40.2678553  36.6093833  77.2141313  39.4628553  37.2223833  76.2881313
  40.0808553  36.7753833  76.4711313  42.7918553  52.4893833  76.7671313
  43.4138553  52.6523833  77.3571313  42.8278553  53.1803833  76.2351313
  42.8888553  52.6153833  76.7761313  49.8678553  46.1593833  88.7631313
  49.9228553  46.2843833  87.9011313  50.6208553  46.4793833  89.0651313
  49.9868553  46.2243833  88.6801313  37.2928553  45.0233833  77.5961313
  37.6168553  44.2443833  77.3741313  37.9388553  45.3913833  78.0511313
  37.4358553  44.9623833  77.6301313  45.5988553  45.9653833  88.3631313
  45.4438553  46.5753833  88.9671313  46.1328553  45.4073833  88.7691313
  45.6548553  45.9733833  88.5121313  34.2898553  36.6843833  78.5641313
  34.4188553  35.9763833  78.0721313  33.9228553  36.3663833  79.2891313
  34.2548553  36.5323833  78.5991313  43.9828553  44.3653833  79.0211313
  44.0418553  45.0153833  79.6001313  43.7938553  43.6693833  79.5121313
  43.9638553  44.3583833  79.1791313  49.2088553  48.6943833  84.8901313
  48.7298553  48.9923833  84.2241313  48.8528553  47.9183833  85.0681313
  49.0858553  48.6233833  84.8181313  38.4788553  38.8823833  75.5331313
  37.9678553  38.9353833  74.8271313  39.2628553  39.1223833  75.2371313
  38.5188553  38.9253833  75.3851313  43.2058553  46.4123833  83.4521313
  42.3588553  46.2183833  83.5331313  43.5298553  46.2473833  84.2451313
  43.1278553  46.3593833  83.5811313  39.9578553  53.1423833  74.3381313
  40.3968553  52.4453833  74.6261313  40.1648553  53.7663833  74.9111313
  40.0538553  53.1313833  74.4651313  37.0538553  46.1053833  85.7681313
  37.7758553  46.5933833  85.7311313  36.7838553  46.0753833  84.9391313
  37.1208553  46.1733833  85.6401313  40.2838553  41.2763833  82.5031313
  41.1298553  41.0863833  82.6011313  39.9138553  40.4993833  82.3651313
  40.3538553  41.1333833  82.4971313  52.9008553  52.8603833  76.8301313
  53.5948553  52.3933833  76.5821313  52.3618553  52.2623833  77.1671313
  52.9238553  52.7023833  76.8431313  35.1048553  42.6143833  79.1581313
  35.5938553  42.3223833  79.8191313  35.2338553  42.0213833  78.5311313
  35.1958553  42.4833833  79.1631313  50.1398553  45.6363833  86.0091313
  50.1328553  44.8603833  86.4071313  49.2988553  45.8703833  86.0021313
  50.0148553  45.5563833  86.0671313  39.6298553  44.0483833  74.6441313
  39.0198553  43.6433833  75.1181313  39.2438553  44.1663833  73.8711313
  39.4828553  44.0053833  74.6001313  36.4488553  47.1573833  90.0461313
  36.0278553  46.6393833  89.4851313  36.0968553  47.9433833  89.9031313
  36.3348553  47.1973833  89.9421313  51.3958553  45.7073833  83.4461313
  51.1098553  46.1083833  84.1661313  52.2558553  45.6453833  83.5731313
  51.4808553  45.7573833  83.5711313  41.0848553  42.5093833  77.3541313
  41.3568553  43.3353833  77.4211313  40.2218553  42.5843833  77.2581313
  40.9978553  42.6423833  77.3491313  34.5648553  38.4793833  83.8901313
  34.6088553  38.8233833  83.0891313  35.3198553  38.7163833  84.2571313
  34.6828553  38.5653833  83.8261313  52.5268553  51.3403833  83.9751313
  52.8168553  51.5973833  83.1941313  53.2218553  51.4363833  84.4941313
  52.6728553  51.3923833  83.9361313  49.1318553  49.9433833  75.9571313
  49.4658553  49.1373833  75.9921313  48.3768553  49.8713833  76.3871313
  49.0698553  49.8133833  76.0261313  49.6138553  41.7773833  81.6161313
  48.8688553  41.4543833  81.9341313  49.6158553  42.6033833  81.8961313
  49.5038553  41.8513833  81.7041313  52.0538553  47.7373833  89.3681313
  52.6818553  47.1883833  89.1121313  51.9928553  48.3023833  88.7061313
  52.1378553  47.7403833  89.2321313  46.5058553  47.8183833  75.3601313
  47.1898553  47.3043833  75.1911313  46.0888553  47.8643833  74.5951313
  46.5448553  47.7493833  75.2221313  41.1878553  48.9683833  86.6641313
  40.8898553  49.5603833  87.2311313  41.2428553  49.4103833  85.9151313
  41.1518553  49.1213833  86.6371313  48.5258553  38.1073833  89.0771313
  49.2698553  38.5593833  89.0141313  47.9598553  38.5773833  88.6081313
  48.5528553  38.2443833  88.9991313  43.7038553  45.3913833  86.1551313
  44.1798553  45.7653833  86.7831313  42.8808553  45.5253833  86.4141313
  43.6528553  45.4663833  86.2861313  40.4138553  40.9943833  88.8961313
  40.5748553  40.2503833  89.3231313  40.3688553  40.7453833  88.0611313
  40.4308553  40.8473833  88.8361313  42.9678553  52.7843833  81.3831313
  43.5138553  53.4633833  81.4371313  42.6178553  52.8663833  80.5881313
  42.9968553  52.8973833  81.2731313  49.8108553  36.0873833  86.7471313
  49.5308553  36.9123833  86.7031313  50.5268553  36.1403833  87.2431313
  49.8758553  36.2173833  86.8141313  42.1658553  36.8023833  88.7761313
  42.8708553  37.1223833  88.3741313  42.4068553  35.9953833  89.0031313
  42.3048553  36.7303833  88.7501313  41.1508553  51.0123833  84.7721313
  40.5268553  51.5943833  84.5901313  41.3988553  50.7263833  83.9861313
  41.0948553  51.0563833  84.6291313  51.2318553  42.3423833  75.6041313
  51.6098553  43.0193833  75.2041313  50.3898553  42.5663833  75.6351313
  51.1628553  42.4753833  75.5491313  42.7448553  45.7883833  74.6871313
  41.9398553  45.6113833  74.4021313  42.7118553  46.6393833  74.8791313
  42.6208553  45.8873833  74.6741313  38.6748553  41.8553833  84.8371313
  39.1148553  41.7523833  84.0911313  39.2198553  41.5423833  85.4421313
  38.8198553  41.7943833  84.8161313  46.3788553  42.4943833  86.7271313
  46.6808553  42.9143833  87.4301313  46.4148553  41.6543833  86.9591313
  46.4288553  42.4323833  86.8651313  48.9268553  41.9413833  78.9791313
  49.1338553  41.7403833  79.8031313  49.6828553  42.2093833  78.6371313
  49.0688553  41.9513833  79.0501313  42.2218553  36.8403833  84.8841313
  41.3958553  36.6913833  85.1211313  42.1818553  36.8753833  84.0131313
  42.0938553  36.8233833  84.7901313  49.9488553  38.0243833  80.4531313
  49.2348553  37.5533833  80.6241313  49.7868553  38.3653833  79.6671313
  49.8198553  38.0053833  80.3621313  50.3918553  45.9683833  78.8331313
  50.8678553  45.2393833  78.7851313  49.5708553  45.6823833  78.7571313
  50.3408553  45.8183833  78.8141313  43.8628553  47.8803833  89.6721313
  43.0678553  47.8163833  90.0231313  43.9338553  48.7273833  89.4771313
  43.7558553  47.9953833  89.6951313  39.6928553  54.0873833  84.9891313
  39.7038553  54.1463833  85.8591313  39.2678553  53.3403833  84.8391313
  39.6318553  53.9853833  85.0951313  37.8508553  39.9823833  78.1441313
  37.9768553  39.6533833  77.3461313  37.0388553  39.7333833  78.3431313
  37.7498553  39.8973833  78.0561313  46.6078553  47.1353833  81.1881313
  46.6838553  47.4763833  81.9871313  46.7768553  46.2883833  81.3091313
  46.6438553  47.0603833  81.3241313  44.1298553  46.4093833  80.7531313
  43.8318553  46.0943833  81.5101313  44.8248553  46.8823833  80.9881313
  44.1888553  46.4323833  80.9001313  44.3518553  50.5273833  88.7801313
  45.0388553  50.4133833  89.3051313  44.4858553  51.3183833  88.4361313
  44.4728553  50.6273833  88.8071313  47.0408553  43.8013833  89.1671313
  46.7858553  43.0823833  89.5891313  47.8618553  43.9173833  89.4371313
  47.1248553  43.7123833  89.2691313  48.0588553  53.3653833  83.2831313
  47.6078553  54.0083833  83.6621313  48.7668553  53.2863833  83.7881313
  48.0968553  53.4483833  83.4141313  44.7598553  48.4553833  86.2131313
  44.0658553  48.8573833  86.5561313  45.4368553  48.8883833  86.5521313
  44.7568553  48.5783833  86.3141313  37.8278553  41.9933833  88.5601313
  38.2028553  42.6123833  88.0731313  38.5018553  41.5193833  88.8451313
  37.9828553  42.0153833  88.5301313  35.6028553  40.4413833  87.8351313
  35.6798553  40.2723833  86.9821313  36.3488553  40.8473833  88.0321313
  35.7238553  40.4763833  87.7381313  51.1618553  43.0813833  78.2751313
  51.2648553  43.0233833  77.4111313  51.9028553  42.7493833  78.5931313
  51.2868553  43.0243833  78.1941313  45.0818553  50.0463833  79.3821313
  44.8768553  50.8793833  79.2231313  44.3068553  49.6643833  79.5041313
  44.9368553  50.1133833  79.3771313  50.2638553  43.2273833  87.6311313
  50.2618553  42.3643833  87.7551313  50.3308553  43.5513833  88.4381313
  50.2738553  43.1473833  87.7681313  34.9998553  45.6673833  88.0591313
  35.3198553  45.8863833  87.2781313  34.8998553  44.8023833  88.0041313
  35.0318553  45.5723833  87.9361313  36.4558553  41.6033833  74.6771313
  35.7838553  41.6173833  75.2331313  36.5508553  40.7553833  74.4931313
  36.3708553  41.4803833  74.7321313  45.1368553  38.2173833  82.2671313
  44.4368553  38.7353833  82.2111313  45.1748553  37.8373833  81.4831313
  45.0388553  38.2383833  82.1431313  40.4438553  50.3083833  75.7911313
  40.8848553  50.3883833  76.5391313  39.6388553  50.0923833  76.0491313
  40.3898553  50.2883833  75.9401313  48.7348553  38.7333833  85.0671313
  49.5898553  38.8323833  85.2121313  48.3658553  39.2863833  85.6321313
  48.8068553  38.8303833  85.1721313  39.7628553  44.9593833  89.4441313
  39.3668553  45.7333833  89.5191313  39.3568553  44.5863833  88.7681313
  39.6448553  45.0183833  89.3551313  49.0388553  44.0133833  83.5581313
  49.7048553  44.5543833  83.7181313  48.6938553  44.3243833  82.8191313
  49.0858553  44.1393833  83.4731313  49.3518553  52.0793833  79.3651313
  49.1778553  51.4253833  79.9151313  50.0648553  51.8083833  78.9421313
  49.4318553  51.9423833  79.3841313  37.7728553  49.3783833  76.3921313
  37.5288553  49.0713833  77.1721313  37.7398553  48.6753833  75.8761313
  37.7318553  49.2293833  76.4311313  40.5918553  47.6233833  75.1351313
  39.7738553  47.3553833  75.2751313  40.5638553  48.4753833  75.3201313
  40.4668553  47.7103833  75.1831313  40.1918553  37.9363833  86.8941313
  39.3278553  38.0203833  86.9741313  40.4118553  37.4223833  87.5631313
  40.0968553  37.8733833  87.0051313  52.2098553  36.5713833  88.2231313
  52.1578553  36.5273833  89.0931313  52.8968553  36.0683833  88.0331313
  52.3038553  36.4913833  88.3231313  44.2948553  38.6843833  85.2681313
  43.5578553  38.2303833  85.3811313  44.8658553  38.2823833  85.7911313
  44.2698553  38.5573833  85.3621313  47.0268553  49.5323833  87.0561313
  47.2328553  49.8333833  87.8481313  46.9658553  50.2543833  86.5711313
  47.0478553  49.6833833  87.1011313  42.5938553  36.2653833  75.0991313
  42.6718553  36.5123833  74.2661313  41.8508553  36.6423833  75.3571313
  42.4958553  36.3573833  75.0141313  51.8388553  48.1713833  86.5141313
  51.8068553  47.3093833  86.3791313  51.1458553  48.4733833  86.0801313
  51.7318553  48.0883833  86.4301313  49.9438553  51.4313833  85.3111313
  50.4708553  51.3483833  84.6201313  49.5528553  50.6533833  85.3651313
  49.9638553  51.3043833  85.2171313  37.4118553  38.0193833  87.5421313
  37.0688553  37.2523833  87.3081313  36.7168553  38.5433833  87.6061313
  37.2588553  37.9833833  87.5171313  46.4578553  36.8753833  84.5191313
  47.1278553  37.4193833  84.6461313  45.9548553  37.2993833  83.9461313
  46.4828553  37.0183833  84.4531313  45.8168553  42.6833833  82.0121313
  46.3678553  42.0763833  82.3121313  45.3918553  42.9463833  82.7271313
  45.8358553  42.6323833  82.1611313  36.0648553  41.3333833  81.4981313
  35.6968553  41.6353833  82.2291313  36.5988553  40.7043833  81.7821313
  36.0888553  41.2853833  81.6481313  35.7528553  49.7413833  89.0091313
  35.1788553  50.1573833  89.5181313  36.4858553  50.2063833  89.1041313
  35.7768553  49.8713833  89.0981313  47.7868553  44.5143833  78.5741313
  47.8548553  43.6643833  78.7551313  46.9638553  44.6003833  78.2961313
  47.6748553  44.4013833  78.5601313  37.5388553  53.0083833  77.7841313
  37.3938553  53.1643833  76.9381313  38.4048553  53.0873833  77.8621313
  37.6458553  53.0433833  77.6711313  41.7058553  45.4053833  77.5121313
  41.8058553  45.5443833  76.6571313  42.5238553  45.3453833  77.8081313
  41.8408553  45.4163833  77.4291313  50.8658553  53.4693833  74.9921313
  51.5028553  53.3353833  75.5731313  50.5248553  52.6753833  74.8751313
  50.9098553  53.3323833  75.0601313  46.9408553  49.7343833  77.3141313
  46.6898553  49.6063833  78.1401313  46.6238553  49.0393833  76.8931313
  46.8568553  49.6133833  77.3741313  51.5848553  41.3923833  85.4341313
  50.7518553  41.6423833  85.3621313  51.5288553  40.5523833  85.6631313
  51.4538553  41.3053833  85.4571313  38.2258553  51.8233833  84.2611313
  38.1468553  51.0133833  83.9451313  37.7818553  52.3103833  83.6891313
  38.1488553  51.7753833  84.1301313  43.8268553  47.9423833  76.7441313
  44.5438553  47.5953833  76.3881313  43.7928553  48.7423833  76.3961313
  43.9278553  48.0093833  76.6401313  35.7978553  54.0673833  87.8421313
  36.2908553  54.0113833  88.5601313  35.9858553  53.3343833  87.4071313
  35.8988553  53.9503833  87.8841313  45.2358553  36.5833833  60.9828903
  44.9908553  37.0713833  60.3028903  46.0988553  36.5103833  60.8828903
  45.3268553  36.6443833  60.8678903  45.0448553  43.4993833  65.6538903
  44.5208553  44.0953833  66.0168903  45.4418553  43.1313833  66.3378903
  45.0258553  43.5333833  65.8088903  34.9138553  47.6393833  61.1098903
  34.4728553  47.7573833  61.8528903  34.6308553  46.8643833  60.8248903
  34.8068553  47.5423833  61.1778903  51.1888553  50.9403833  58.6248903
  51.8898553  50.4213833  58.6208903  50.6018553  50.4953833  58.1558903
  51.2058553  50.7973833  58.5548903  34.6568553  41.4313833  57.6168903
  33.8788553  41.5933833  57.2568903  34.6958553  40.5603833  57.6388903
  34.5478553  41.3263833  57.5668903  37.7958553  46.6943833  56.2888903
  37.4038553  46.3233833  55.6028903  37.7158553  46.0963833  56.9178903
  37.7258553  46.5513833  56.2798903  47.7158553  44.5663833  62.3298903
  47.7958553  44.5703833  61.4608903  47.1318553  43.9343833  62.4788903
  47.6408553  44.4733833  62.2238903  37.4228553  48.3353833  60.1888903
  38.0308553  48.1653833  60.7918903  36.6718553  48.1953833  60.6098903
  37.4018553  48.2893833  60.3398903  41.7048553  37.6703833  60.1378903
  41.6348553  38.3473833  59.5918903  42.4458553  37.2823833  59.8888903
  41.8038553  37.7133833  60.0198903  36.3138553  51.4263833  56.2658903
  36.7808553  51.5103833  55.5338903  36.7688553  50.8483833  56.7348903
  36.4498553  51.3533833  56.2268903  34.8538553  50.3743833  67.3648903
  34.9828553  50.0943833  68.1808903  34.2438553  49.8333833  67.0558903
  34.7828553  50.2533833  67.4398903  41.4278553  47.8993833  72.4318903
  41.1918553  47.8963833  73.2718903  40.6798553  47.7513833  72.0078903
  41.2818553  47.8763833  72.4928903  36.2998553  44.8953833  61.5668903
  35.8378553  44.5033833  60.9398903  36.9998553  44.3823833  61.6588903
  36.3348553  44.7623833  61.4878903  40.8078553  40.5053833  66.9138903
  41.4858553  40.5233833  66.3648903  40.7628553  39.6693833  67.1588903
  40.9008553  40.3843833  66.8688903  41.4098553  51.0913833  69.6948903
  41.5478553  51.8513833  69.2878903  42.2008553  50.7263833  69.7218903
  41.5468553  51.1503833  69.6388903  38.3008553  42.9953833  61.5898903
  39.1178553  42.8083833  61.8328903  37.8238553  42.3813833  61.9858903
  38.3508553  42.8773833  61.6848903  42.5048553  48.9763833  64.1998903
  42.8528553  48.1773833  64.2298903  43.1698553  49.4803833  63.9448903
  42.6548553  48.9323833  64.1668903  42.5618553  48.4253833  60.4108903
  42.8928553  47.7813833  60.8968903  42.8018553  48.2143833  59.5998903
  42.6458553  48.2993833  60.3628903  44.5298553  42.5563833  71.7498903
  43.6818553  42.4573833  71.5718903  44.5588553  43.3013833  72.2038903
  44.4088553  42.6523833  71.7908903  49.0878553  35.5163833  70.8638903
  48.9298553  36.2853833  70.4818903  48.3158553  35.2963833  71.2078903
  48.9498553  35.5973833  70.8588903  46.5498553  40.1573833  55.3778903
  46.0998553  40.8383833  55.6848903  46.6638553  39.6533833  56.0808903
  46.5008553  40.1833833  55.5268903  34.7558553  42.6563833  64.5798903
  34.4998553  43.4873833  64.5048903  34.0918553  42.2733833  64.9968903
  34.6198553  42.7223833  64.6308903  34.6658553  52.3663833  62.4798903
  34.0738553  52.9243833  62.1668903  35.0918553  52.0973833  61.7678903
  34.6418553  52.4083833  62.3288903  40.5058553  50.2103833  59.9598903
  39.9268553  49.9353833  60.5518903  41.1298553  49.6013833  59.9848903
  40.5128553  50.0803833  60.0508903  46.6488553  52.4983833  57.4818903
  47.3758553  52.9703833  57.5838903  46.8778553  51.7043833  57.7618903
  46.7908553  52.4513833  57.5388903  44.8168553  52.8903833  59.4718903
  45.0308553  53.4173833  60.1338903  45.5838553  52.7163833  59.0928903
  44.9618553  52.9423833  59.5138903  37.7848553  37.4733833  65.0708903
  37.2638553  36.8453833  64.7628903  38.3758553  37.0363833  65.5418903
  37.7958553  37.3153833  65.0948903  41.0908553  39.6063833  74.3688903
  41.2078553  39.1523833  73.6328903  41.3788553  40.4043833  74.1658903
  41.1508553  39.6573833  74.2298903  36.2108553  51.0363833  60.4108903
  36.8668553  50.4613833  60.4258903  36.5998553  51.7853833  60.1898903
  36.3658553  51.0613833  60.3808903  51.9438553  40.1303833  61.6728903
  51.5978553  40.8083833  62.0988903  51.3078553  39.5323833  61.6888903
  51.7988553  40.1423833  61.7378903  47.2558553  52.9003833  67.7768903
  47.9998553  53.3563833  67.7668903  47.1348553  52.6863833  66.9398903
  47.3478553  52.9363833  67.6518903  36.8238553  39.2033833  73.3528903
  36.0458553  38.8133833  73.2808903  37.3148553  38.7913833  72.7618903
  36.7808553  39.0843833  73.2548903  37.0288553  49.5233833  63.9108903
  37.4518553  49.1673833  63.2368903  37.3528553  49.1013833  64.6028903
  37.1388553  49.4083833  63.9138903  40.2598553  52.3753833  63.2068903
  41.1038553  52.4793833  63.0118903  39.9628553  53.1933833  63.2748903
  40.3408553  52.5113833  63.1878903  43.4728553  36.8463833  72.5208903
  43.6508553  36.0373833  72.2458903  43.3298553  37.2873833  71.7818903
  43.4778553  36.7923833  72.3708903  44.0668553  41.7723833  61.2938903
  44.3538553  41.5403833  60.5038903  44.7988553  41.8513833  61.7628903
  44.2168553  41.7493833  61.2468903  44.7888553  42.1113833  56.4148903
  45.0698553  42.8993833  56.6638903  44.0128553  42.2763833  56.0518903
  44.7158553  42.2523833  56.3978903  48.8298553  54.0853833  57.8818903
  49.4948553  53.9373833  57.3368903  49.1898553  54.0023833  58.6718903
  48.9818553  54.0513833  57.9178903  39.2578553  53.5943833  68.9468903
  39.5498553  53.5273833  69.7668903  38.6318553  52.9893833  68.9018903
  39.2088553  53.4953833  69.0618903  51.6188553  38.4533833  67.0418903
  52.3758553  38.5253833  66.6138903  51.6818553  37.6803833  67.4408903
  51.7398553  38.3503833  67.0368903  34.1718553  39.7513833  70.9388903
  34.1678553  40.3383833  71.5848903  34.7658553  40.0633833  70.3818903
  34.2588553  39.8843833  70.9518903  46.5098553  50.0853833  71.4808903
  46.4758553  50.4673833  72.2648903  47.3638553  50.0433833  71.3098903
  46.6308553  50.1353833  71.5718903  43.6478553  50.2823833  56.2308903
  43.4668553  50.8273833  56.8878903  44.4138553  50.5723833  55.9298903
  43.7338553  50.4063833  56.2838903  47.1548553  38.1783833  57.2848903
  47.6948553  37.4963833  57.3608903  47.2168553  38.5763833  58.0588903
  47.2438553  38.1363833  57.4108903  37.2508553  51.7563833  68.0688903
  36.5528553  51.2483833  68.1948903  37.5108553  51.5513833  67.2608903
  37.1858553  51.6513833  67.9678903  44.9618553  53.2493833  68.9788903
  45.7298553  53.1693833  68.5728903  44.3788553  53.1283833  68.3408903
  44.9888553  53.2193833  68.8248903  44.4128553  37.4953833  58.4898903
  43.9578553  37.0933833  57.8638903  45.1858553  37.6503833  58.1148903
  44.4598553  37.4593833  58.3418903  51.2388553  53.8523833  61.8798903
  50.7838553  54.5693833  62.0808903  50.6248553  53.2813833  61.6378903
  51.0808553  53.8743833  61.8738903  43.0108553  39.8623833  63.0118903
  43.0848553  40.4303833  62.3538903  43.1318553  40.3543833  63.7218903
  43.0388553  40.0193833  63.0198903  48.2358553  49.6973833  61.4238903
  48.9368553  49.2153833  61.6128903  47.5758553  49.1283833  61.4688903
  48.2418553  49.5423833  61.4578903  38.6118553  50.6073833  70.6358903
  39.4528553  50.6703833  70.4138903  38.5748553  51.0043833  71.4118903
  38.7308553  50.6753833  70.7178903  40.5748553  46.1183833  65.3848903
  40.7468553  45.9083833  66.2138903  39.9198553  45.5843833  65.1688903
  40.5038553  46.0083833  65.4758903  46.8028553  40.0323833  68.8998903
  46.7078553  40.3513833  69.7058903  46.2098553  39.3933833  68.8618903
  46.7008553  39.9843833  69.0138903  41.3248553  46.0563833  67.9748903
  41.3778553  46.9033833  68.1768903  41.0398553  45.6863833  68.7118903
  41.2908553  46.1263833  68.1128903  47.5018553  46.7513833  67.1048903
  46.9878553  46.3393833  67.6758903  47.3758553  47.5953833  67.2858903
  47.4078553  46.8153833  67.2158903  48.0588553  35.9763833  61.7358903
  48.1078553  35.6583833  62.5468903  48.3818553  35.3323833  61.2428903
  48.1138553  35.8343833  61.7828903  34.1458553  50.4273833  74.1858903
  34.9018553  50.7763833  74.4438903  34.3228553  49.5743833  74.1288903
  34.2838553  50.3523833  74.2158903  50.5228553  40.2123833  70.0438903
  51.2948553  39.9873833  70.3808903  50.0478553  40.4293833  70.7438903
  50.5668553  40.2113833  70.1968903  50.7548553  47.1903833  57.2318903
  50.8738553  46.9033833  58.0468903  51.5618553  47.2113833  56.9018903
  50.8908553  47.1513833  57.3038903  37.8908553  46.9223833  62.5628903
  38.7418553  46.8423833  62.3898903  37.5338553  46.2403833  62.1508903
  37.9638553  46.8093833  62.4758903  36.6578553  53.6473833  63.7998903
  35.9848553  53.1493833  63.5548903  37.0608553  53.8323833  63.0488903
  36.6178553  53.6013833  63.6528903  36.2078553  40.5973833  66.0958903
  37.0508553  40.8173833  66.0528903  35.8188553  41.1703833  65.5648903
  36.2748553  40.7143833  66.0108903  52.9888553  51.6993833  71.4858903
  52.3068553  52.0093833  71.0388903  52.6198553  51.2413833  72.1308903
  52.8328553  51.6773833  71.5148903  48.6498553  43.7273833  56.8168903
  48.4298553  44.4583833  56.3948903  48.2018553  43.7783833  57.5638903
  48.5508553  43.8423833  56.8648903  40.2588553  46.9293833  60.7978903
  40.9718553  47.4243833  60.8878903  40.4808553  46.3623833  60.1718903
  40.3968553  46.9183833  60.7188903  52.8368553  38.5883833  56.2698903
  52.1748553  38.0203833  56.2928903  52.6438553  39.1003833  55.5898903
  52.7108553  38.5803833  56.1728903  34.4148553  48.5723833  64.1178903
  33.7478553  49.0603833  64.3938903  35.0948553  49.1173833  64.1468903
  34.4168553  48.7243833  64.1628903  42.0618553  42.2823833  74.2138903
  41.5778553  42.8593833  74.6558903  42.0338553  42.5773833  73.3928903
  41.9858553  42.4113833  74.1578903  53.1598553  42.9663833  68.8258903
  53.3748553  42.1663833  68.5498903  52.3098553  43.0263833  68.6368903
  53.0658553  42.8573833  68.7568903  34.4808553  45.2563833  59.2208903
  34.2958553  44.4173833  59.3728903  35.1398553  45.2203833  58.6508903
  34.5508553  45.1273833  59.1588903  50.8388553  38.1463833  58.5488903
  51.5848553  37.7393833  58.7478903  51.1018553  38.8613833  58.1238903
  50.9878553  38.1923833  58.5158903  44.7818553  50.6323833  63.1248903
  44.2588553  51.2663833  62.8318903  45.0918553  50.2683833  62.3958903
  44.7498553  50.6723833  62.9738903  34.6528553  49.4203833  58.7958903
  35.2048553  49.9893833  59.1598903  34.4208553  48.9053833  59.4608903
  34.6998553  49.4283833  58.9478903  38.8568553  48.4203833  65.8848903
  39.3238553  48.7093833  66.5628903  39.4288553  47.9423833  65.4308903
  39.0108553  48.3923833  65.9178903  47.2928553  40.4343833  63.6218903
  47.6368553  40.5863833  64.4088903  46.8398553  39.6963833  63.7348903
  47.2768553  40.3473833  63.7548903  34.4828553  47.8693833  56.4238903
  35.2388553  47.4373833  56.4818903  34.4978553  48.4013833  57.1148903
  34.5968553  47.8843833  56.5348903  35.4228553  46.0903833  64.4288903
  35.8538553  45.9613833  63.6818903  35.2178553  46.9383833  64.4028903
  35.4558553  46.1963833  64.3148903  41.7688553  39.6543833  58.0788903
  41.7668553  39.5373833  57.2138903  41.5878553  40.5023833  58.1708903
  41.7418553  39.7623833  57.9648903  50.8228553  52.0813833  69.5758903
  50.1518553  52.5953833  69.7938903  50.8858553  52.1813833  68.7118903
  50.7328553  52.1723833  69.4808903  39.5068553  49.6063833  62.7108903
  39.6328553  50.4493833  62.8978903  40.1748553  49.2073833  63.1068903
  39.6248553  49.6723833  62.7968903  37.6368553  43.0893833  72.5728903
  37.1008553  42.5833833  73.0408903  37.6568553  42.6993833  71.7928903
  37.5598553  42.9563833  72.5268903  38.1218553  42.4863833  57.7128903
  37.9938553  42.0383833  58.4508903  37.5398553  42.1443833  57.1608903
  38.0168553  42.3693833  57.7408903  38.2888553  44.3163833  64.3118903
  37.5078553  44.2573833  63.9288903  38.3608553  43.5643833  64.7488903
  38.1838553  44.1973833  64.3198903  38.7188553  44.0533833  67.7798903
  38.7438553  43.3783833  67.2288903  38.0728553  44.5493833  67.4678903
  38.6278553  44.0263833  67.6528903  48.6138553  41.7663833  66.1758903
  47.9518553  42.0943833  66.6388903  48.8008553  42.4003833  65.6068903
  48.5438553  41.9083833  66.1598903  42.8188553  52.8303833  67.1718903
  42.5418553  52.1893833  66.6488903  42.6108553  53.5563833  66.7338903
  42.7478553  52.8433833  67.0298903  45.2588553  37.6723833  69.6048903
  45.4078553  36.8473833  69.3618903  45.6378553  37.7273833  70.3888903
  45.3368553  37.5583833  69.6848903  46.8068553  39.7353833  59.6868903
  47.2968553  40.4523833  59.6098903  46.0168553  39.9963833  59.4238903
  46.7628553  39.8793833  59.6368903  36.5178553  45.4083833  73.3388903
  36.4808553  45.9093833  72.6248903  36.8488553  44.6563833  73.0438903
  36.5608553  45.3703833  73.1898903  48.1208553  47.6133833  71.5968903
  48.6048553  48.3313833  71.6948903  48.5148553  47.1863833  70.9458903
  48.2508553  47.6563833  71.5148903  42.4168553  50.4583833  72.7738903
  42.7708553  50.2803833  73.5508903  41.9808553  49.7293833  72.5748903
  42.4048553  50.3243833  72.8598903  43.3888553  41.2053833  65.4118903
  43.8688553  41.9043833  65.6198903  43.7618553  40.5583833  65.8628903
  43.5148553  41.2133833  65.5088903  45.5778553  44.3743833  57.6858903
  45.5698553  45.0963833  57.1958903  44.9388553  44.5093833  58.2628903
  45.4828553  44.5013833  57.6988903  50.5498553  48.2443833  61.6668903
  50.9058553  47.8943833  62.3818903  50.5418553  47.5833833  61.0968903
  50.6018553  48.0943833  61.6878903  46.5948553  51.3103833  65.5108903
  45.9918553  51.0143833  64.9538903  47.1398553  51.7623833  65.0018903
  46.5858553  51.3333833  65.3528903  46.6078553  48.1613833  64.9108903
  45.8108553  48.3853833  65.1848903  46.8658553  47.5673833  65.4958903
  46.5278553  48.1063833  65.0378903  40.4998553  52.9733833  59.3588903
  40.3528553  52.1973833  59.7298903  41.1888553  52.8263833  58.8438903
  40.5798553  52.8363833  59.3378903  42.7918553  52.4893833  57.7608903
  43.4138553  52.6523833  58.3508903  42.8278553  53.1803833  57.2288903
  42.8888553  52.6153833  57.7698903  49.8678553  46.1593833  69.7568903
  49.9228553  46.2843833  68.8948903  50.6208553  46.4793833  70.0588903
  49.9868553  46.2243833  69.6738903  46.0588553  51.5083833  74.0338903
  46.2228553  51.7913833  74.8428903  46.3218553  52.1693833  73.5288903
  46.1218553  51.6483833  74.0788903  50.8998553  36.4573833  72.7438903
  50.2628553  36.0573833  72.3018903  50.9258553  36.0263833  73.5018903
  50.8098553  36.3353833  72.7898903  37.2928553  45.0233833  58.5898903
  37.6168553  44.2443833  58.3678903  37.9388553  45.3913833  59.0448903
  37.4358553  44.9623833  58.6238903  45.5988553  45.9653833  69.3568903
  45.4438553  46.5753833  69.9608903  46.1328553  45.4073833  69.7628903
  45.6548553  45.9733833  69.5058903  43.9828553  44.3653833  60.0148903
  44.0418553  45.0153833  60.5938903  43.7938553  43.6693833  60.5058903
  43.9638553  44.3583833  60.1728903  49.2088553  48.6943833  65.8838903
  48.7298553  48.9923833  65.2178903  48.8528553  47.9183833  66.0618903
  49.0858553  48.6233833  65.8118903  43.2058553  46.4123833  64.4458903
  42.3588553  46.2183833  64.5268903  43.5298553  46.2473833  65.2388903
  43.1278553  46.3593833  64.5748903  39.9578553  53.1423833  55.3318903
  40.3968553  52.4453833  55.6198903  40.1648553  53.7663833  55.9048903
  40.0538553  53.1313833  55.4588903  37.0538553  46.1053833  66.7618903
  37.7758553  46.5933833  66.7248903  36.7838553  46.0753833  65.9328903
  37.1208553  46.1733833  66.6338903  40.2838553  41.2763833  63.4968903
  41.1298553  41.0863833  63.5948903  39.9138553  40.4993833  63.3588903
  40.3538553  41.1333833  63.4908903  52.9008553  52.8603833  57.8238903
  53.5948553  52.3933833  57.5758903  52.3618553  52.2623833  58.1608903
  52.9238553  52.7023833  57.8368903  35.1048553  42.6143833  60.1518903
  35.5938553  42.3223833  60.8128903  35.2338553  42.0213833  59.5248903
  35.1958553  42.4833833  60.1568903  50.1398553  45.6363833  67.0028903
  50.1328553  44.8603833  67.4008903  49.2988553  45.8703833  66.9958903
  50.0148553  45.5563833  67.0608903  39.6298553  44.0483833  55.6378903
  39.0198553  43.6433833  56.1118903  39.2438553  44.1663833  54.8648903
  39.4828553  44.0053833  55.5938903  36.4488553  47.1573833  71.0398903
  36.0278553  46.6393833  70.4788903  36.0968553  47.9433833  70.8968903
  36.3348553  47.1973833  70.9358903  51.3958553  45.7073833  64.4398903
  51.1098553  46.1083833  65.1598903  52.2558553  45.6453833  64.5668903
  51.4808553  45.7573833  64.5648903  41.0848553  42.5093833  58.3478903
  41.3568553  43.3353833  58.4148903  40.2218553  42.5843833  58.2518903
  40.9978553  42.6423833  58.3428903  49.0578553  39.6313833  72.9798903
  48.5328553  40.0903833  73.5038903  48.6968553  38.8363833  72.9738903
  48.9268553  39.5813833  73.0558903  34.5648553  38.4793833  64.8838903
  34.6088553  38.8233833  64.0828903  35.3198553  38.7163833  65.2508903
  34.6828553  38.5653833  64.8198903  52.5268553  51.3403833  64.9688903
  52.8168553  51.5973833  64.1878903  53.2218553  51.4363833  65.4878903
  52.6728553  51.3923833  64.9298903  47.5498553  43.2003833  73.0558903
  47.6228553  43.3043833  73.9188903  46.9158553  43.7583833  72.8348903
  47.4668553  43.2983833  73.1508903  49.8178553  43.5193833  71.4208903
  50.1368553  44.3053833  71.6238903  49.4478553  43.2493833  72.1638903
  49.8108553  43.5953833  71.5608903  49.1318553  49.9433833  56.9508903
  49.4658553  49.1373833  56.9858903  48.3768553  49.8713833  57.3808903
  49.0698553  49.8133833  57.0198903  49.6138553  41.7773833  62.6098903
  48.8688553  41.4543833  62.9278903  49.6158553  42.6033833  62.8898903
  49.5038553  41.8513833  62.6978903  52.5158553  44.0613833  74.1558903
  52.4638553  43.7203833  73.3548903  53.2528553  44.5283833  74.1338903
  52.6168553  44.0803833  74.0338903  52.0538553  47.7373833  70.3618903
  52.6818553  47.1883833  70.1058903  51.9928553  48.3023833  69.6998903
  52.1378553  47.7403833  70.2258903  46.5058553  47.8183833  56.3538903
  47.1898553  47.3043833  56.1848903  46.0888553  47.8643833  55.5888903
  46.5448553  47.7493833  56.2158903  41.1878553  48.9683833  67.6578903
  40.8898553  49.5603833  68.2248903  41.2428553  49.4103833  66.9088903
  41.1518553  49.1213833  67.6308903  39.1668553  47.9183833  71.0558903
  38.3608553  47.6283833  71.2228903  39.0778553  48.7863833  71.0618903
  39.0348553  48.0033833  71.0808903  48.5258553  38.1073833  70.0708903
  49.2698553  38.5593833  70.0078903  47.9598553  38.5773833  69.6018903
  48.5528553  38.2443833  69.9928903  43.7038553  45.3913833  67.1488903
  44.1798553  45.7653833  67.7768903  42.8808553  45.5253833  67.4078903
  43.6528553  45.4663833  67.2798903  40.4138553  40.9943833  69.8898903
  40.5748553  40.2503833  70.3168903  40.3688553  40.7453833  69.0548903
  40.4308553  40.8473833  69.8298903  42.9678553  52.7843833  62.3768903
  43.5138553  53.4633833  62.4308903  42.6178553  52.8663833  61.5818903
  42.9968553  52.8973833  62.2668903  49.8108553  36.0873833  67.7408903
  49.5308553  36.9123833  67.6968903  50.5268553  36.1403833  68.2368903
  49.8758553  36.2173833  67.8078903  42.1658553  36.8023833  69.7698903
  42.8708553  37.1223833  69.3678903  42.4068553  35.9953833  69.9968903
  42.3048553  36.7303833  69.7438903  41.1508553  51.0123833  65.7658903
  40.5268553  51.5943833  65.5838903  41.3988553  50.7263833  64.9798903
  41.0948553  51.0563833  65.6228903  45.4598553  47.6463833  72.7548903
  46.2168553  47.9323833  72.4288903  44.9128553  47.6983833  72.0768903
  45.4908553  47.6963833  72.6058903  49.3688553  50.1963833  71.2588903
  49.7148553  50.4663833  72.0128903  49.6628553  50.7783833  70.6788903
  49.4638553  50.3223833  71.2848903  51.2318553  42.3423833  56.5978903
  51.6098553  43.0193833  56.1978903  50.3898553  42.5663833  56.6288903
  51.1628553  42.4753833  56.5428903  42.7448553  45.7883833  55.6808903
  41.9398553  45.6113833  55.3958903  42.7118553  46.6393833  55.8728903
  42.6208553  45.8873833  55.6678903  38.6748553  41.8553833  65.8308903
  39.1148553  41.7523833  65.0848903  39.2198553  41.5423833  66.4358903
  38.8198553  41.7943833  65.8098903  46.6908553  40.9573833  71.4228903
  46.0428553  41.4273833  71.7708903  47.2558553  40.8683833  72.0818903
  46.6788553  41.0133833  71.5718903  43.8038553  52.6613833  71.6458903
  44.2818553  52.0613833  71.2298903  43.4528553  52.2183833  72.3108903
  43.8228553  52.5073833  71.6828903  48.9268553  41.9413833  59.9728903
  49.1338553  41.7403833  60.7968903  49.6828553  42.2093833  59.6308903
  49.0688553  41.9513833  60.0438903  49.9488553  38.0243833  61.4468903
  49.2348553  37.5533833  61.6178903  49.7868553  38.3653833  60.6608903
  49.8198553  38.0053833  61.3558903  50.3918553  45.9683833  59.8268903
  50.8678553  45.2393833  59.7788903  49.5708553  45.6823833  59.7508903
  50.3408553  45.8183833  59.8078903  43.8628553  47.8803833  70.6658903
  43.0678553  47.8163833  71.0168903  43.9338553  48.7273833  70.4708903
  43.7558553  47.9953833  70.6888903  34.7868553  37.2383833  71.9128903
  34.6468553  38.0333833  71.5818903  34.0008553  36.9953833  72.2018903
  34.6498553  37.3203833  71.9068903  39.6928553  54.0873833  65.9828903
  39.7038553  54.1463833  66.8528903  39.2678553  53.3403833  65.8328903
  39.6318553  53.9853833  66.0888903  46.6078553  47.1353833  62.1818903
  46.6838553  47.4763833  62.9808903  46.7768553  46.2883833  62.3028903
  46.6438553  47.0603833  62.3178903  44.1298553  46.4093833  61.7468903
  43.8318553  46.0943833  62.5038903  44.8248553  46.8823833  61.9818903
  44.1888553  46.4323833  61.8938903  44.3518553  50.5273833  69.7738903
  45.0388553  50.4133833  70.2988903  44.4858553  51.3183833  69.4298903
  44.4728553  50.6273833  69.8008903  52.5278553  43.1363833  71.5848903
  51.6728553  43.0143833  71.7108903  52.6808553  42.7413833  70.8218903
  52.4238553  43.0593833  71.4908903  47.0408553  43.8013833  70.1608903
  46.7858553  43.0823833  70.5828903  47.8618553  43.9173833  70.4308903
  47.1248553  43.7123833  70.2628903  36.4568553  53.5853833  71.4248903
  35.8028553  53.0163833  71.5228903  36.0818553  54.3583833  71.5758903
  36.3048553  53.6153833  71.4618903  44.9748553  44.9913833  73.3478903
  45.2978553  45.6773833  72.9158903  44.2708553  45.3143833  73.7498903
  44.9178553  45.1403833  73.3428903  48.0588553  53.3653833  64.2768903
  47.6078553  54.0083833  64.6558903  48.7668553  53.2863833  64.7818903
  48.0968553  53.4483833  64.4078903  44.7598553  48.4553833  67.2068903
  44.0658553  48.8573833  67.5498903  45.4368553  48.8883833  67.5458903
  44.7568553  48.5783833  67.3078903  50.1368553  51.0483833  73.7868903
  50.9128553  50.6583833  73.8698903  49.6678553  50.7123833  74.4418903
  50.1818553  50.9413833  73.8958903  37.8278553  41.9933833  69.5538903
  38.2028553  42.6123833  69.0668903  38.5018553  41.5193833  69.8388903
  37.9828553  42.0153833  69.5238903  35.6028553  40.4413833  68.8288903
  35.6798553  40.2723833  67.9758903  36.3488553  40.8473833  69.0258903
  35.7238553  40.4763833  68.7318903  51.1618553  43.0813833  59.2688903
  51.2648553  43.0233833  58.4048903  51.9028553  42.7493833  59.5868903
  51.2868553  43.0243833  59.1878903  38.1568553  37.8513833  71.2398903
  38.0758553  37.0073833  71.4458903  37.8428553  37.8953833  70.4268903
  38.0988553  37.7333833  71.1498903  45.0818553  50.0463833  60.3758903
  44.8768553  50.8793833  60.2168903  44.3068553  49.6643833  60.4978903
  44.9368553  50.1133833  60.3708903  50.2638553  43.2273833  68.6248903
  50.2618553  42.3643833  68.7488903  50.3308553  43.5513833  69.4318903
  50.2738553  43.1473833  68.7618903  34.9998553  45.6673833  69.0528903
  35.3198553  45.8863833  68.2718903  34.8998553  44.8023833  68.9978903
  35.0318553  45.5723833  68.9298903  46.1428553  38.0273833  72.4068903
  46.2348553  38.7393833  72.9008903  45.5058553  37.5823833  72.8038903
  46.0618553  38.0663833  72.5388903  45.1368553  38.2173833  63.2608903
  44.4368553  38.7353833  63.2048903  45.1748553  37.8373833  62.4768903
  45.0388553  38.2383833  63.1368903  40.4438553  50.3083833  56.7848903
  40.8848553  50.3883833  57.5328903  39.6388553  50.0923833  57.0428903
  40.3898553  50.2883833  56.9338903  48.7348553  38.7333833  66.0608903
  49.5898553  38.8323833  66.2058903  48.3658553  39.2863833  66.6258903
  48.8068553  38.8303833  66.1658903  39.7628553  44.9593833  70.4378903
  39.3668553  45.7333833  70.5128903  39.3568553  44.5863833  69.7618903
  39.6448553  45.0183833  70.3488903  49.0388553  44.0133833  64.5518903
  49.7048553  44.5543833  64.7118903  48.6938553  44.3243833  63.8128903
  49.0858553  44.1393833  64.4668903  49.3518553  52.0793833  60.3588903
  49.1778553  51.4253833  60.9088903  50.0648553  51.8083833  59.9358903
  49.4318553  51.9423833  60.3778903  37.7728553  49.3783833  57.3858903
  37.5288553  49.0713833  58.1658903  37.7398553  48.6753833  56.8698903
  37.7318553  49.2293833  57.4248903  40.5918553  47.6233833  56.1288903
  39.7738553  47.3553833  56.2688903  40.5638553  48.4753833  56.3138903
  40.4668553  47.7103833  56.1768903  40.1918553  37.9363833  67.8878903
  39.3278553  38.0203833  67.9678903  40.4118553  37.4223833  68.5568903
  40.0968553  37.8733833  67.9988903  52.2098553  36.5713833  69.2168903
  52.1578553  36.5273833  70.0868903  52.8968553  36.0683833  69.0268903
  52.3038553  36.4913833  69.3168903  44.2948553  38.6843833  66.2618903
  43.5578553  38.2303833  66.3748903  44.8658553  38.2823833  66.7848903
  44.2698553  38.5573833  66.3558903  47.0268553  49.5323833  68.0498903
  47.2328553  49.8333833  68.8418903  46.9658553  50.2543833  67.5648903
  47.0478553  49.6833833  68.0948903  46.5608553  53.7463833  72.2958903
  45.8078553  53.7283833  71.8548903  46.7288553  54.5983833  72.3798903
  46.4748553  53.8693833  72.2428903  41.7978553  43.0133833  71.4658903
  41.4758553  42.4373833  70.8958903  41.4388553  43.7683833  71.2198903
  41.6978553  43.0393833  71.3458903  42.5938553  36.2653833  56.0928903
  42.6718553  36.5123833  55.2598903  41.8508553  36.6423833  56.3508903
  42.4958553  36.3573833  56.0078903  51.8388553  48.1713833  67.5078903
  51.8068553  47.3093833  67.3728903  51.1458553  48.4733833  67.0738903
  51.7318553  48.0883833  67.4238903  40.2328553  53.3693833  71.7138903
  40.2738553  53.4953833  72.5768903  40.8838553  52.8093833  71.5578903
  40.3348553  53.3053833  71.8188903  49.9438553  51.4313833  66.3048903
  50.4708553  51.3483833  65.6138903  49.5528553  50.6533833  66.3588903
  49.9638553  51.3043833  66.2108903  37.4118553  38.0193833  68.5358903
  37.0688553  37.2523833  68.3018903  36.7168553  38.5433833  68.5998903
  37.2588553  37.9833833  68.5108903  46.4578553  36.8753833  65.5128903
  47.1278553  37.4193833  65.6398903  45.9548553  37.2993833  64.9398903
  46.4828553  37.0183833  65.4468903  37.8258553  51.7523833  73.0738903
  38.4208553  52.1833833  73.5458903  37.4618553  52.3763833  72.5848903
  37.8598553  51.9083833  73.0708903  45.8168553  42.6833833  63.0058903
  46.3678553  42.0763833  63.3058903  45.3918553  42.9463833  63.7208903
  45.8358553  42.6323833  63.1548903  36.0648553  41.3333833  62.4918903
  35.6968553  41.6353833  63.2228903  36.5988553  40.7043833  62.7758903
  36.0888553  41.2853833  62.6418903  35.7528553  49.7413833  70.0028903
  35.1788553  50.1573833  70.5118903  36.4858553  50.2063833  70.0978903
  35.7768553  49.8713833  70.0918903  47.7868553  44.5143833  59.5678903
  47.8548553  43.6643833  59.7488903  46.9638553  44.6003833  59.2898903
  47.6748553  44.4013833  59.5538903  37.5388553  53.0083833  58.7778903
  37.3938553  53.1643833  57.9318903  38.4048553  53.0873833  58.8558903
  37.6458553  53.0433833  58.6648903  41.7058553  45.4053833  58.5058903
  41.8058553  45.5443833  57.6508903  42.5238553  45.3453833  58.8018903
  41.8408553  45.4163833  58.4228903  50.8658553  53.4693833  55.9858903
  51.5028553  53.3353833  56.5668903  50.5248553  52.6753833  55.8688903
  50.9098553  53.3323833  56.0538903  51.0608553  45.8873833  72.7188903
  51.6948553  45.7173833  73.2928903  51.4778553  46.2903833  72.0668903
  51.2158553  45.9223833  72.7078903  46.9408553  49.7343833  58.3078903
  46.6898553  49.6063833  59.1338903  46.6238553  49.0393833  57.8868903
  46.8568553  49.6133833  58.3678903  51.6858553  40.4513833  73.4568903
  51.4898553  41.0953833  74.0118903  50.9638553  39.9613833  73.4488903
  51.5508553  40.4743833  73.5378903  51.5848553  41.3923833  66.4278903
  50.7518553  41.6423833  66.3558903  51.5288553  40.5523833  66.6568903
  51.4538553  41.3053833  66.4508903  40.8448553  38.3803833  71.6218903
  41.0788553  37.8043833  71.0088903  40.0028553  38.1993833  71.7628903
  40.7548553  38.2683833  71.5518903  48.4718553  45.9983833  74.0738903
  49.3428553  45.9623833  74.0378903  48.2528553  46.4183833  73.3418903
  48.5688553  46.0543833  73.9608903  38.2258553  51.8233833  65.2548903
  38.1468553  51.0133833  64.9388903  37.7818553  52.3103833  64.6828903
  38.1488553  51.7753833  65.1238903  43.8268553  47.9423833  57.7378903
  44.5438553  47.5953833  57.3818903  43.7928553  48.7423833  57.3898903
  43.9278553  48.0093833  57.6338903  35.7978553  54.0673833  68.8358903
  36.2908553  54.0113833  69.5538903  35.9858553  53.3343833  68.4008903
  35.8988553  53.9503833  68.8778903  45.2358553  36.5833833  41.9766493
  44.9908553  37.0713833  41.2966493  46.0988553  36.5103833  41.8766493
  45.3268553  36.6443833  41.8616493  45.0448553  43.4993833  46.6476493
  44.5208553  44.0953833  47.0106493  45.4418553  43.1313833  47.3316493
  45.0258553  43.5333833  46.8026493  34.9138553  47.6393833  42.1036493
  34.4728553  47.7573833  42.8466493  34.6308553  46.8643833  41.8186493
  34.8068553  47.5423833  42.1716493  51.1888553  50.9403833  39.6186493
  51.8898553  50.4213833  39.6146493  50.6018553  50.4953833  39.1496493
  51.2058553  50.7973833  39.5486493  37.7958553  46.6943833  37.2826493
  37.4038553  46.3233833  36.5966493  37.7158553  46.0963833  37.9116493
  37.7258553  46.5513833  37.2736493  47.7158553  44.5663833  43.3236493
  47.7958553  44.5703833  42.4546493  47.1318553  43.9343833  43.4726493
  47.6408553  44.4733833  43.2176493  37.4228553  48.3353833  41.1826493
  38.0308553  48.1653833  41.7856493  36.6718553  48.1953833  41.6036493
  37.4018553  48.2893833  41.3336493  41.7048553  37.6703833  41.1316493
  41.6348553  38.3473833  40.5856493  42.4458553  37.2823833  40.8826493
  41.8038553  37.7133833  41.0136493  36.3138553  51.4263833  37.2596493
  36.7808553  51.5103833  36.5276493  36.7688553  50.8483833  37.7286493
  36.4498553  51.3533833  37.2206493  34.8538553  50.3743833  48.3586493
  34.9828553  50.0943833  49.1746493  34.2438553  49.8333833  48.0496493
  34.7828553  50.2533833  48.4336493  41.4278553  47.8993833  53.4256493
  41.1918553  47.8963833  54.2656493  40.6798553  47.7513833  53.0016493
  41.2818553  47.8763833  53.4866493  36.2998553  44.8953833  42.5606493
  35.8378553  44.5033833  41.9336493  36.9998553  44.3823833  42.6526493
  36.3348553  44.7623833  42.4816493  40.8078553  40.5053833  47.9076493
  41.4858553  40.5233833  47.3586493  40.7628553  39.6693833  48.1526493
  40.9008553  40.3843833  47.8626493  41.4098553  51.0913833  50.6886493
  41.5478553  51.8513833  50.2816493  42.2008553  50.7263833  50.7156493
  41.5468553  51.1503833  50.6326493  38.3008553  42.9953833  42.5836493
  39.1178553  42.8083833  42.8266493  37.8238553  42.3813833  42.9796493
  38.3508553  42.8773833  42.6786493  42.5048553  48.9763833  45.1936493
  42.8528553  48.1773833  45.2236493  43.1698553  49.4803833  44.9386493
  42.6548553  48.9323833  45.1606493  42.5618553  48.4253833  41.4046493
  42.8928553  47.7813833  41.8906493  42.8018553  48.2143833  40.5936493
  42.6458553  48.2993833  41.3566493  44.5298553  42.5563833  52.7436493
  43.6818553  42.4573833  52.5656493  44.5588553  43.3013833  53.1976493
  44.4088553  42.6523833  52.7846493  38.8978553  38.0893833  41.8496493
  38.6018553  38.5903833  41.1996493  39.7648553  38.1673833  41.7926493
  38.9818553  38.1753833  41.7456493  49.0878553  35.5163833  51.8576493
  48.9298553  36.2853833  51.4756493  48.3158553  35.2963833  52.2016493
  48.9498553  35.5973833  51.8526493  41.8768553  37.2313833  44.0726493
  41.9498553  38.0913833  44.2016493  41.8388553  37.1563833  43.2046493
  41.8818553  37.3473833  43.9636493  46.5498553  40.1573833  36.3716493
  46.0998553  40.8383833  36.6786493  46.6638553  39.6533833  37.0746493
  46.5008553  40.1833833  36.5206493  34.7558553  42.6563833  45.5736493
  34.4998553  43.4873833  45.4986493  34.0918553  42.2733833  45.9906493
  34.6198553  42.7223833  45.6246493  34.6658553  52.3663833  43.4736493
  34.0738553  52.9243833  43.1606493  35.0918553  52.0973833  42.7616493
  34.6418553  52.4083833  43.3226493  40.5058553  50.2103833  40.9536493
  39.9268553  49.9353833  41.5456493  41.1298553  49.6013833  40.9786493
  40.5128553  50.0803833  41.0446493  46.6488553  52.4983833  38.4756493
  47.3758553  52.9703833  38.5776493  46.8778553  51.7043833  38.7556493
  46.7908553  52.4513833  38.5326493  44.8168553  52.8903833  40.4656493
  45.0308553  53.4173833  41.1276493  45.5838553  52.7163833  40.0866493
  44.9618553  52.9423833  40.5076493  37.7848553  37.4733833  46.0646493
  37.2638553  36.8453833  45.7566493  38.3758553  37.0363833  46.5356493
  37.7958553  37.3153833  46.0886493  36.2108553  51.0363833  41.4046493
  36.8668553  50.4613833  41.4196493  36.5998553  51.7853833  41.1836493
  36.3658553  51.0613833  41.3746493  51.9438553  40.1303833  42.6666493
  51.5978553  40.8083833  43.0926493  51.3078553  39.5323833  42.6826493
  51.7988553  40.1423833  42.7316493  47.2558553  52.9003833  48.7706493
  47.9998553  53.3563833  48.7606493  47.1348553  52.6863833  47.9336493
  47.3478553  52.9363833  48.6456493  37.0288553  49.5233833  44.9046493
  37.4518553  49.1673833  44.2306493  37.3528553  49.1013833  45.5966493
  37.1388553  49.4083833  44.9076493  40.2598553  52.3753833  44.2006493
  41.1038553  52.4793833  44.0056493  39.9628553  53.1933833  44.2686493
  40.3408553  52.5113833  44.1816493  43.4728553  36.8463833  53.5146493
  43.6508553  36.0373833  53.2396493  43.3298553  37.2873833  52.7756493
  43.4778553  36.7923833  53.3646493  44.0668553  41.7723833  42.2876493
  44.3538553  41.5403833  41.4976493  44.7988553  41.8513833  42.7566493
  44.2168553  41.7493833  42.2406493  44.7888553  42.1113833  37.4086493
  45.0698553  42.8993833  37.6576493  44.0128553  42.2763833  37.0456493
  44.7158553  42.2523833  37.3916493  48.8298553  54.0853833  38.8756493
  49.4948553  53.9373833  38.3306493  49.1898553  54.0023833  39.6656493
  48.9818553  54.0513833  38.9116493  39.2578553  53.5943833  49.9406493
  39.5498553  53.5273833  50.7606493  38.6318553  52.9893833  49.8956493
  39.2088553  53.4953833  50.0556493  51.6188553  38.4533833  48.0356493
  52.3758553  38.5253833  47.6076493  51.6818553  37.6803833  48.4346493
  51.7398553  38.3503833  48.0306493  46.5098553  50.0853833  52.4746493
  46.4758553  50.4673833  53.2586493  47.3638553  50.0433833  52.3036493
  46.6308553  50.1353833  52.5656493  43.6478553  50.2823833  37.2246493
  43.4668553  50.8273833  37.8816493  44.4138553  50.5723833  36.9236493
  43.7338553  50.4063833  37.2776493  47.1548553  38.1783833  38.2786493
  47.6948553  37.4963833  38.3546493  47.2168553  38.5763833  39.0526493
  47.2438553  38.1363833  38.4046493  37.2508553  51.7563833  49.0626493
  36.5528553  51.2483833  49.1886493  37.5108553  51.5513833  48.2546493
  37.1858553  51.6513833  48.9616493  44.4128553  40.5543833  39.5926493
  43.9048553  39.8923833  39.3386493  44.4648553  41.0583833  38.8826493
  44.3458553  40.5313833  39.4506493  44.9618553  53.2493833  49.9726493
  45.7298553  53.1693833  49.5666493  44.3788553  53.1283833  49.3346493
  44.9888553  53.2193833  49.8186493  44.4128553  37.4953833  39.4836493
  43.9578553  37.0933833  38.8576493  45.1858553  37.6503833  39.1086493
  44.4598553  37.4593833  39.3356493  51.2388553  53.8523833  42.8736493
  50.7838553  54.5693833  43.0746493  50.6248553  53.2813833  42.6316493
  51.0808553  53.8743833  42.8676493  43.0108553  39.8623833  44.0056493
  43.0848553  40.4303833  43.3476493  43.1318553  40.3543833  44.7156493
  43.0388553  40.0193833  44.0136493  48.2358553  49.6973833  42.4176493
  48.9368553  49.2153833  42.6066493  47.5758553  49.1283833  42.4626493
  48.2418553  49.5423833  42.4516493  38.6118553  50.6073833  51.6296493
  39.4528553  50.6703833  51.4076493  38.5748553  51.0043833  52.4056493
  38.7308553  50.6753833  51.7116493  37.6188553  35.6853833  42.3536493
  38.1548553  36.3733833  42.3436493  37.6218553  35.4113833  41.5256493
  37.6978553  35.7463833  42.2296493  46.8028553  40.0323833  49.8936493
  46.7078553  40.3513833  50.6996493  46.2098553  39.3933833  49.8556493
  46.7008553  39.9843833  50.0076493  41.3248553  46.0563833  48.9686493
  41.3778553  46.9033833  49.1706493  41.0398553  45.6863833  49.7056493
  41.2908553  46.1263833  49.1066493  47.5018553  46.7513833  48.0986493
  46.9878553  46.3393833  48.6696493  47.3758553  47.5953833  48.2796493
  47.4078553  46.8153833  48.2096493  48.0588553  35.9763833  42.7296493
  48.1078553  35.6583833  43.5406493  48.3818553  35.3323833  42.2366493
  48.1138553  35.8343833  42.7766493  34.1458553  50.4273833  55.1796493
  34.9018553  50.7763833  55.4376493  34.3228553  49.5743833  55.1226493
  34.2838553  50.3523833  55.2096493  50.5228553  40.2123833  51.0376493
  51.2948553  39.9873833  51.3746493  50.0478553  40.4293833  51.7376493
  50.5668553  40.2113833  51.1906493  38.0668553  39.4953833  44.0076493
  38.3388553  39.0653833  43.2996493  37.8908553  38.8593833  44.5786493
  38.0808553  39.3383833  43.9876493  50.7548553  47.1903833  38.2256493
  50.8738553  46.9033833  39.0406493  51.5618553  47.2113833  37.8956493
  50.8908553  47.1513833  38.2976493  37.8908553  46.9223833  43.5566493
  38.7418553  46.8423833  43.3836493  37.5338553  46.2403833  43.1446493
  37.9638553  46.8093833  43.4696493  36.6578553  53.6473833  44.7936493
  35.9848553  53.1493833  44.5486493  37.0608553  53.8323833  44.0426493
  36.6178553  53.6013833  44.6466493  36.2078553  40.5973833  47.0896493
  37.0508553  40.8173833  47.0466493  35.8188553  41.1703833  46.5586493
  36.2748553  40.7143833  47.0046493  52.9888553  51.6993833  52.4796493
  52.3068553  52.0093833  52.0326493  52.6198553  51.2413833  53.1246493
  52.8328553  51.6773833  52.5086493  48.6498553  43.7273833  37.8106493
  48.4298553  44.4583833  37.3886493  48.2018553  43.7783833  38.5576493
  48.5508553  43.8423833  37.8586493  40.2588553  46.9293833  41.7916493
  40.9718553  47.4243833  41.8816493  40.4808553  46.3623833  41.1656493
  40.3968553  46.9183833  41.7126493  52.8368553  38.5883833  37.2636493
  52.1748553  38.0203833  37.2866493  52.6438553  39.1003833  36.5836493
  52.7108553  38.5803833  37.1666493  34.4148553  48.5723833  45.1116493
  33.7478553  49.0603833  45.3876493  35.0948553  49.1173833  45.1406493
  34.4168553  48.7243833  45.1566493  42.0618553  42.2823833  55.2076493
  41.5778553  42.8593833  55.6496493  42.0338553  42.5773833  54.3866493
  41.9858553  42.4113833  55.1516493  53.1598553  42.9663833  49.8196493
  53.3748553  42.1663833  49.5436493  52.3098553  43.0263833  49.6306493
  53.0658553  42.8573833  49.7506493  34.4808553  45.2563833  40.2146493
  34.2958553  44.4173833  40.3666493  35.1398553  45.2203833  39.6446493
  34.5508553  45.1273833  40.1526493  50.8388553  38.1463833  39.5426493
  51.5848553  37.7393833  39.7416493  51.1018553  38.8613833  39.1176493
  50.9878553  38.1923833  39.5096493  44.7818553  50.6323833  44.1186493
  44.2588553  51.2663833  43.8256493  45.0918553  50.2683833  43.3896493
  44.7498553  50.6723833  43.9676493  34.6528553  49.4203833  39.7896493
  35.2048553  49.9893833  40.1536493  34.4208553  48.9053833  40.4546493
  34.6998553  49.4283833  39.9416493  38.8568553  48.4203833  46.8786493
  39.3238553  48.7093833  47.5566493  39.4288553  47.9423833  46.4246493
  39.0108553  48.3923833  46.9116493  47.2928553  40.4343833  44.6156493
  47.6368553  40.5863833  45.4026493  46.8398553  39.6963833  44.7286493
  47.2768553  40.3473833  44.7486493  34.4828553  47.8693833  37.4176493
  35.2388553  47.4373833  37.4756493  34.4978553  48.4013833  38.1086493
  34.5968553  47.8843833  37.5286493  35.4228553  46.0903833  45.4226493
  35.8538553  45.9613833  44.6756493  35.2178553  46.9383833  45.3966493
  35.4558553  46.1963833  45.3086493  41.7688553  39.6543833  39.0726493
  41.7668553  39.5373833  38.2076493  41.5878553  40.5023833  39.1646493
  41.7418553  39.7623833  38.9586493  50.8228553  52.0813833  50.5696493
  50.1518553  52.5953833  50.7876493  50.8858553  52.1813833  49.7056493
  50.7328553  52.1723833  50.4746493  39.5068553  49.6063833  43.7046493
  39.6328553  50.4493833  43.8916493  40.1748553  49.2073833  44.1006493
  39.6248553  49.6723833  43.7906493  37.6368553  43.0893833  53.5666493
  37.1008553  42.5833833  54.0346493  37.6568553  42.6993833  52.7866493
  37.5598553  42.9563833  53.5206493  38.1218553  42.4863833  38.7066493
  37.9938553  42.0383833  39.4446493  37.5398553  42.1443833  38.1546493
  38.0168553  42.3693833  38.7346493  38.2888553  44.3163833  45.3056493
  37.5078553  44.2573833  44.9226493  38.3608553  43.5643833  45.7426493
  38.1838553  44.1973833  45.3136493  38.7188553  44.0533833  48.7736493
  38.7438553  43.3783833  48.2226493  38.0728553  44.5493833  48.4616493
  38.6278553  44.0263833  48.6466493  48.6138553  41.7663833  47.1696493
  47.9518553  42.0943833  47.6326493  48.8008553  42.4003833  46.6006493
  48.5438553  41.9083833  47.1536493  42.8188553  52.8303833  48.1656493
  42.5418553  52.1893833  47.6426493  42.6108553  53.5563833  47.7276493
  42.7478553  52.8433833  48.0236493  45.2588553  37.6723833  50.5986493
  45.4078553  36.8473833  50.3556493  45.6378553  37.7273833  51.3826493
  45.3368553  37.5583833  50.6786493  46.8068553  39.7353833  40.6806493
  47.2968553  40.4523833  40.6036493  46.0168553  39.9963833  40.4176493
  46.7628553  39.8793833  40.6306493  36.5178553  45.4083833  54.3326493
  36.4808553  45.9093833  53.6186493  36.8488553  44.6563833  54.0376493
  36.5608553  45.3703833  54.1836493  48.1208553  47.6133833  52.5906493
  48.6048553  48.3313833  52.6886493  48.5148553  47.1863833  51.9396493
  48.2508553  47.6563833  52.5086493  42.4168553  50.4583833  53.7676493
  42.7708553  50.2803833  54.5446493  41.9808553  49.7293833  53.5686493
  42.4048553  50.3243833  53.8536493  43.3888553  41.2053833  46.4056493
  43.8688553  41.9043833  46.6136493  43.7618553  40.5583833  46.8566493
  43.5148553  41.2133833  46.5026493  45.5778553  44.3743833  38.6796493
  45.5698553  45.0963833  38.1896493  44.9388553  44.5093833  39.2566493
  45.4828553  44.5013833  38.6926493  50.5498553  48.2443833  42.6606493
  50.9058553  47.8943833  43.3756493  50.5418553  47.5833833  42.0906493
  50.6018553  48.0943833  42.6816493  46.5948553  51.3103833  46.5046493
  45.9918553  51.0143833  45.9476493  47.1398553  51.7623833  45.9956493
  46.5858553  51.3333833  46.3466493  46.6078553  48.1613833  45.9046493
  45.8108553  48.3853833  46.1786493  46.8658553  47.5673833  46.4896493
  46.5278553  48.1063833  46.0316493  40.4998553  52.9733833  40.3526493
  40.3528553  52.1973833  40.7236493  41.1888553  52.8263833  39.8376493
  40.5798553  52.8363833  40.3316493  40.1708553  36.7163833  38.3406493
  40.2678553  36.6093833  39.2016493  39.4628553  37.2223833  38.2756493
  40.0808553  36.7753833  38.4586493  42.7918553  52.4893833  38.7546493
  43.4138553  52.6523833  39.3446493  42.8278553  53.1803833  38.2226493
  42.8888553  52.6153833  38.7636493  49.8678553  46.1593833  50.7506493
  49.9228553  46.2843833  49.8886493  50.6208553  46.4793833  51.0526493
  49.9868553  46.2243833  50.6676493  46.0588553  51.5083833  55.0276493
  46.2228553  51.7913833  55.8366493  46.3218553  52.1693833  54.5226493
  46.1218553  51.6483833  55.0726493  50.8998553  36.4573833  53.7376493
  50.2628553  36.0573833  53.2956493  50.9258553  36.0263833  54.4956493
  50.8098553  36.3353833  53.7836493  37.2928553  45.0233833  39.5836493
  37.6168553  44.2443833  39.3616493  37.9388553  45.3913833  40.0386493
  37.4358553  44.9623833  39.6176493  45.5988553  45.9653833  50.3506493
  45.4438553  46.5753833  50.9546493  46.1328553  45.4073833  50.7566493
  45.6548553  45.9733833  50.4996493  43.9828553  44.3653833  41.0086493
  44.0418553  45.0153833  41.5876493  43.7938553  43.6693833  41.4996493
  43.9638553  44.3583833  41.1666493  49.2088553  48.6943833  46.8776493
  48.7298553  48.9923833  46.2116493  48.8528553  47.9183833  47.0556493
  49.0858553  48.6233833  46.8056493  38.4788553  38.8823833  37.5206493
  37.9678553  38.9353833  36.8146493  39.2628553  39.1223833  37.2246493
  38.5188553  38.9253833  37.3726493  43.2058553  46.4123833  45.4396493
  42.3588553  46.2183833  45.5206493  43.5298553  46.2473833  46.2326493
  43.1278553  46.3593833  45.5686493  39.9578553  53.1423833  36.3256493
  40.3968553  52.4453833  36.6136493  40.1648553  53.7663833  36.8986493
  40.0538553  53.1313833  36.4526493  37.0538553  46.1053833  47.7556493
  37.7758553  46.5933833  47.7186493  36.7838553  46.0753833  46.9266493
  37.1208553  46.1733833  47.6276493  40.2838553  41.2763833  44.4906493
  41.1298553  41.0863833  44.5886493  39.9138553  40.4993833  44.3526493
  40.3538553  41.1333833  44.4846493  52.9008553  52.8603833  38.8176493
  53.5948553  52.3933833  38.5696493  52.3618553  52.2623833  39.1546493
  52.9238553  52.7023833  38.8306493  50.1398553  45.6363833  47.9966493
  50.1328553  44.8603833  48.3946493  49.2988553  45.8703833  47.9896493
  50.0148553  45.5563833  48.0546493  39.6298553  44.0483833  36.6316493
  39.0198553  43.6433833  37.1056493  39.2438553  44.1663833  35.8586493
  39.4828553  44.0053833  36.5876493  36.4488553  47.1573833  52.0336493
  36.0278553  46.6393833  51.4726493  36.0968553  47.9433833  51.8906493
  36.3348553  47.1973833  51.9296493  51.3958553  45.7073833  45.4336493
  51.1098553  46.1083833  46.1536493  52.2558553  45.6453833  45.5606493
  51.4808553  45.7573833  45.5586493  41.0848553  42.5093833  39.3416493
  41.3568553  43.3353833  39.4086493  40.2218553  42.5843833  39.2456493
  40.9978553  42.6423833  39.3366493  49.0578553  39.6313833  53.9736493
  48.5328553  40.0903833  54.4976493  48.6968553  38.8363833  53.9676493
  48.9268553  39.5813833  54.0496493  52.5268553  51.3403833  45.9626493
  52.8168553  51.5973833  45.1816493  53.2218553  51.4363833  46.4816493
  52.6728553  51.3923833  45.9236493  47.5498553  43.2003833  54.0496493
  47.6228553  43.3043833  54.9126493  46.9158553  43.7583833  53.8286493
  47.4668553  43.2983833  54.1446493  49.8178553  43.5193833  52.4146493
  50.1368553  44.3053833  52.6176493  49.4478553  43.2493833  53.1576493
  49.8108553  43.5953833  52.5546493  49.1318553  49.9433833  37.9446493
  49.4658553  49.1373833  37.9796493  48.3768553  49.8713833  38.3746493
  49.0698553  49.8133833  38.0136493  49.6138553  41.7773833  43.6036493
  48.8688553  41.4543833  43.9216493  49.6158553  42.6033833  43.8836493
  49.5038553  41.8513833  43.6916493  52.5158553  44.0613833  55.1496493
  52.4638553  43.7203833  54.3486493  53.2528553  44.5283833  55.1276493
  52.6168553  44.0803833  55.0276493  52.0538553  47.7373833  51.3556493
  52.6818553  47.1883833  51.0996493  51.9928553  48.3023833  50.6936493
  52.1378553  47.7403833  51.2196493  46.5058553  47.8183833  37.3476493
  47.1898553  47.3043833  37.1786493  46.0888553  47.8643833  36.5826493
  46.5448553  47.7493833  37.2096493  41.1878553  48.9683833  48.6516493
  40.8898553  49.5603833  49.2186493  41.2428553  49.4103833  47.9026493
  41.1518553  49.1213833  48.6246493  39.1668553  47.9183833  52.0496493
  38.3608553  47.6283833  52.2166493  39.0778553  48.7863833  52.0556493
  39.0348553  48.0033833  52.0746493  48.5258553  38.1073833  51.0646493
  49.2698553  38.5593833  51.0016493  47.9598553  38.5773833  50.5956493
  48.5528553  38.2443833  50.9866493  43.7038553  45.3913833  48.1426493
  44.1798553  45.7653833  48.7706493  42.8808553  45.5253833  48.4016493
  43.6528553  45.4663833  48.2736493  40.4138553  40.9943833  50.8836493
  40.5748553  40.2503833  51.3106493  40.3688553  40.7453833  50.0486493
  40.4308553  40.8473833  50.8236493  42.9678553  52.7843833  43.3706493
  43.5138553  53.4633833  43.4246493  42.6178553  52.8663833  42.5756493
  42.9968553  52.8973833  43.2606493  49.8108553  36.0873833  48.7346493
  49.5308553  36.9123833  48.6906493  50.5268553  36.1403833  49.2306493
  49.8758553  36.2173833  48.8016493  42.1658553  36.8023833  50.7636493
  42.8708553  37.1223833  50.3616493  42.4068553  35.9953833  50.9906493
  42.3048553  36.7303833  50.7376493  41.1508553  51.0123833  46.7596493
  40.5268553  51.5943833  46.5776493  41.3988553  50.7263833  45.9736493
  41.0948553  51.0563833  46.6166493  45.4598553  47.6463833  53.7486493
  46.2168553  47.9323833  53.4226493  44.9128553  47.6983833  53.0706493
  45.4908553  47.6963833  53.5996493  49.3688553  50.1963833  52.2526493
  49.7148553  50.4663833  53.0066493  49.6628553  50.7783833  51.6726493
  49.4638553  50.3223833  52.2786493  51.2318553  42.3423833  37.5916493
  51.6098553  43.0193833  37.1916493  50.3898553  42.5663833  37.6226493
  51.1628553  42.4753833  37.5366493  42.7448553  45.7883833  36.6746493
  41.9398553  45.6113833  36.3896493  42.7118553  46.6393833  36.8666493
  42.6208553  45.8873833  36.6616493  38.6748553  41.8553833  46.8246493
  39.1148553  41.7523833  46.0786493  39.2198553  41.5423833  47.4296493
  38.8198553  41.7943833  46.8036493  46.6908553  40.9573833  52.4166493
  46.0428553  41.4273833  52.7646493  47.2558553  40.8683833  53.0756493
  46.6788553  41.0133833  52.5656493  46.3788553  42.4943833  48.7146493
  46.6808553  42.9143833  49.4176493  46.4148553  41.6543833  48.9466493
  46.4288553  42.4323833  48.8526493  43.8038553  52.6613833  52.6396493
  44.2818553  52.0613833  52.2236493  43.4528553  52.2183833  53.3046493
  43.8228553  52.5073833  52.6766493  48.9268553  41.9413833  40.9666493
  49.1338553  41.7403833  41.7906493  49.6828553  42.2093833  40.6246493
  49.0688553  41.9513833  41.0376493  42.2218553  36.8403833  46.8716493
  41.3958553  36.6913833  47.1086493  42.1818553  36.8753833  46.0006493
  42.0938553  36.8233833  46.7776493  49.9488553  38.0243833  42.4406493
  49.2348553  37.5533833  42.6116493  49.7868553  38.3653833  41.6546493
  49.8198553  38.0053833  42.3496493  50.3918553  45.9683833  40.8206493
  50.8678553  45.2393833  40.7726493  49.5708553  45.6823833  40.7446493
  50.3408553  45.8183833  40.8016493  43.8628553  47.8803833  51.6596493
  43.0678553  47.8163833  52.0106493  43.9338553  48.7273833  51.4646493
  43.7558553  47.9953833  51.6826493  39.6928553  54.0873833  46.9766493
  39.7038553  54.1463833  47.8466493  39.2678553  53.3403833  46.8266493
  39.6318553  53.9853833  47.0826493  37.8508553  39.9823833  40.1316493
  37.9768553  39.6533833  39.3336493  37.0388553  39.7333833  40.3306493
  37.7498553  39.8973833  40.0436493  46.6078553  47.1353833  43.1756493
  46.6838553  47.4763833  43.9746493  46.7768553  46.2883833  43.2966493
  46.6438553  47.0603833  43.3116493  44.1298553  46.4093833  42.7406493
  43.8318553  46.0943833  43.4976493  44.8248553  46.8823833  42.9756493
  44.1888553  46.4323833  42.8876493  44.3518553  50.5273833  50.7676493
  45.0388553  50.4133833  51.2926493  44.4858553  51.3183833  50.4236493
  44.4728553  50.6273833  50.7946493  52.5278553  43.1363833  52.5786493
  51.6728553  43.0143833  52.7046493  52.6808553  42.7413833  51.8156493
  52.4238553  43.0593833  52.4846493  36.4568553  53.5853833  52.4186493
  35.8028553  53.0163833  52.5166493  36.0818553  54.3583833  52.5696493
  36.3048553  53.6153833  52.4556493  44.9748553  44.9913833  54.3416493
  45.2978553  45.6773833  53.9096493  44.2708553  45.3143833  54.7436493
  44.9178553  45.1403833  54.3366493  48.0588553  53.3653833  45.2706493
  47.6078553  54.0083833  45.6496493  48.7668553  53.2863833  45.7756493
  48.0968553  53.4483833  45.4016493  44.7598553  48.4553833  48.2006493
  44.0658553  48.8573833  48.5436493  45.4368553  48.8883833  48.5396493
  44.7568553  48.5783833  48.3016493  50.1368553  51.0483833  54.7806493
  50.9128553  50.6583833  54.8636493  49.6678553  50.7123833  55.4356493
  50.1818553  50.9413833  54.8896493  37.8278553  41.9933833  50.5476493
  38.2028553  42.6123833  50.0606493  38.5018553  41.5193833  50.8326493
  37.9828553  42.0153833  50.5176493  51.1618553  43.0813833  40.2626493
  51.2648553  43.0233833  39.3986493  51.9028553  42.7493833  40.5806493
  51.2868553  43.0243833  40.1816493  45.0818553  50.0463833  41.3696493
  44.8768553  50.8793833  41.2106493  44.3068553  49.6643833  41.4916493
  44.9368553  50.1133833  41.3646493  50.2638553  43.2273833  49.6186493
  50.2618553  42.3643833  49.7426493  50.3308553  43.5513833  50.4256493
  50.2738553  43.1473833  49.7556493  34.9998553  45.6673833  50.0466493
  35.3198553  45.8863833  49.2656493  34.8998553  44.8023833  49.9916493
  35.0318553  45.5723833  49.9236493  36.4558553  41.6033833  36.6646493
  35.7838553  41.6173833  37.2206493  36.5508553  40.7553833  36.4806493
  36.3708553  41.4803833  36.7196493  46.1428553  38.0273833  53.4006493
  46.2348553  38.7393833  53.8946493  45.5058553  37.5823833  53.7976493
  46.0618553  38.0663833  53.5326493  45.1368553  38.2173833  44.2546493
  44.4368553  38.7353833  44.1986493  45.1748553  37.8373833  43.4706493
  45.0388553  38.2383833  44.1306493  40.4438553  50.3083833  37.7786493
  40.8848553  50.3883833  38.5266493  39.6388553  50.0923833  38.0366493
  40.3898553  50.2883833  37.9276493  48.7348553  38.7333833  47.0546493
  49.5898553  38.8323833  47.1996493  48.3658553  39.2863833  47.6196493
  48.8068553  38.8303833  47.1596493  39.7628553  44.9593833  51.4316493
  39.3668553  45.7333833  51.5066493  39.3568553  44.5863833  50.7556493
  39.6448553  45.0183833  51.3426493  49.0388553  44.0133833  45.5456493
  49.7048553  44.5543833  45.7056493  48.6938553  44.3243833  44.8066493
  49.0858553  44.1393833  45.4606493  49.3518553  52.0793833  41.3526493
  49.1778553  51.4253833  41.9026493  50.0648553  51.8083833  40.9296493
  49.4318553  51.9423833  41.3716493  37.7728553  49.3783833  38.3796493
  37.5288553  49.0713833  39.1596493  37.7398553  48.6753833  37.8636493
  37.7318553  49.2293833  38.4186493  40.5918553  47.6233833  37.1226493
  39.7738553  47.3553833  37.2626493  40.5638553  48.4753833  37.3076493
  40.4668553  47.7103833  37.1706493  40.1918553  37.9363833  48.8816493
  39.3278553  38.0203833  48.9616493  40.4118553  37.4223833  49.5506493
  40.0968553  37.8733833  48.9926493  52.2098553  36.5713833  50.2106493
  52.1578553  36.5273833  51.0806493  52.8968553  36.0683833  50.0206493
  52.3038553  36.4913833  50.3106493  44.2948553  38.6843833  47.2556493
  43.5578553  38.2303833  47.3686493  44.8658553  38.2823833  47.7786493
  44.2698553  38.5573833  47.3496493  47.0268553  49.5323833  49.0436493
  47.2328553  49.8333833  49.8356493  46.9658553  50.2543833  48.5586493
  47.0478553  49.6833833  49.0886493  46.5608553  53.7463833  53.2896493
  45.8078553  53.7283833  52.8486493  46.7288553  54.5983833  53.3736493
  46.4748553  53.8693833  53.2366493  41.7978553  43.0133833  52.4596493
  41.4758553  42.4373833  51.8896493  41.4388553  43.7683833  52.2136493
  41.6978553  43.0393833  52.3396493  42.5938553  36.2653833  37.0866493
  42.6718553  36.5123833  36.2536493  41.8508553  36.6423833  37.3446493
  42.4958553  36.3573833  37.0016493  51.8388553  48.1713833  48.5016493
  51.8068553  47.3093833  48.3666493  51.1458553  48.4733833  48.0676493
  51.7318553  48.0883833  48.4176493  40.2328553  53.3693833  52.7076493
  40.2738553  53.4953833  53.5706493  40.8838553  52.8093833  52.5516493
  40.3348553  53.3053833  52.8126493  49.9438553  51.4313833  47.2986493
  50.4708553  51.3483833  46.6076493  49.5528553  50.6533833  47.3526493
  49.9638553  51.3043833  47.2046493  46.4578553  36.8753833  46.5066493
  47.1278553  37.4193833  46.6336493  45.9548553  37.2993833  45.9336493
  46.4828553  37.0183833  46.4406493  37.8258553  51.7523833  54.0676493
  38.4208553  52.1833833  54.5396493  37.4618553  52.3763833  53.5786493
  37.8598553  51.9083833  54.0646493  45.8168553  42.6833833  43.9996493
  46.3678553  42.0763833  44.2996493  45.3918553  42.9463833  44.7146493
  45.8358553  42.6323833  44.1486493  36.0648553  41.3333833  43.4856493
  35.6968553  41.6353833  44.2166493  36.5988553  40.7043833  43.7696493
  36.0888553  41.2853833  43.6356493  35.7528553  49.7413833  50.9966493
  35.1788553  50.1573833  51.5056493  36.4858553  50.2063833  51.0916493
  35.7768553  49.8713833  51.0856493  47.7868553  44.5143833  40.5616493
  47.8548553  43.6643833  40.7426493  46.9638553  44.6003833  40.2836493
  47.6748553  44.4013833  40.5476493  37.5388553  53.0083833  39.7716493
  37.3938553  53.1643833  38.9256493  38.4048553  53.0873833  39.8496493
  37.6458553  53.0433833  39.6586493  41.7058553  45.4053833  39.4996493
  41.8058553  45.5443833  38.6446493  42.5238553  45.3453833  39.7956493
  41.8408553  45.4163833  39.4166493  50.8658553  53.4693833  36.9796493
  51.5028553  53.3353833  37.5606493  50.5248553  52.6753833  36.8626493
  50.9098553  53.3323833  37.0476493  51.0608553  45.8873833  53.7126493
  51.6948553  45.7173833  54.2866493  51.4778553  46.2903833  53.0606493
  51.2158553  45.9223833  53.7016493  46.9408553  49.7343833  39.3016493
  46.6898553  49.6063833  40.1276493  46.6238553  49.0393833  38.8806493
  46.8568553  49.6133833  39.3616493  51.6858553  40.4513833  54.4506493
  51.4898553  41.0953833  55.0056493  50.9638553  39.9613833  54.4426493
  51.5508553  40.4743833  54.5316493  51.5848553  41.3923833  47.4216493
  50.7518553  41.6423833  47.3496493  51.5288553  40.5523833  47.6506493
  51.4538553  41.3053833  47.4446493  48.4718553  45.9983833  55.0676493
  49.3428553  45.9623833  55.0316493  48.2528553  46.4183833  54.3356493
  48.5688553  46.0543833  54.9546493  38.2258553  51.8233833  46.2486493
  38.1468553  51.0133833  45.9326493  37.7818553  52.3103833  45.6766493
  38.1488553  51.7753833  46.1176493  43.8268553  47.9423833  38.7316493
  44.5438553  47.5953833  38.3756493  43.7928553  48.7423833  38.3836493
  43.9278553  48.0093833  38.6276493  35.7978553  54.0673833  49.8296493
  36.2908553  54.0113833  50.5476493  35.9858553  53.3343833  49.3946493
  35.8988553  53.9503833  49.8716493  45.2358553  36.5833833  22.9704083
  44.9908553  37.0713833  22.2904083  46.0988553  36.5103833  22.8704083
  45.3268553  36.6443833  22.8554083  45.0448553  43.4993833  27.6414083
  44.5208553  44.0953833  28.0044083  45.4418553  43.1313833  28.3254083
  45.0258553  43.5333833  27.7964083  34.9138553  47.6393833  23.0974083
  34.4728553  47.7573833  23.8404083  34.6308553  46.8643833  22.8124083
  34.8068553  47.5423833  23.1654083  51.1888553  50.9403833  20.6124083
  51.8898553  50.4213833  20.6084083  50.6018553  50.4953833  20.1434083
  51.2058553  50.7973833  20.5424083  34.6568553  41.4313833  19.6044083
  33.8788553  41.5933833  19.2444083  34.6958553  40.5603833  19.6264083
  34.5478553  41.3263833  19.5544083  37.7958553  46.6943833  18.2764083
  37.4038553  46.3233833  17.5904083  37.7158553  46.0963833  18.9054083
  37.7258553  46.5513833  18.2674083  47.7158553  44.5663833  24.3174083
  47.7958553  44.5703833  23.4484083  47.1318553  43.9343833  24.4664083
  47.6408553  44.4733833  24.2114083  37.4228553  48.3353833  22.1764083
  38.0308553  48.1653833  22.7794083  36.6718553  48.1953833  22.5974083
  37.4018553  48.2893833  22.3274083  41.7048553  37.6703833  22.1254083
  41.6348553  38.3473833  21.5794083  42.4458553  37.2823833  21.8764083
  41.8038553  37.7133833  22.0074083  36.3138553  51.4263833  18.2534083
  36.7808553  51.5103833  17.5214083  36.7688553  50.8483833  18.7224083
  36.4498553  51.3533833  18.2144083  34.8538553  50.3743833  29.3524083
  34.9828553  50.0943833  30.1684083  34.2438553  49.8333833  29.0434083
  34.7828553  50.2533833  29.4274083  41.4278553  47.8993833  34.4194083
  41.1918553  47.8963833  35.2594083  40.6798553  47.7513833  33.9954083
  41.2818553  47.8763833  34.4804083  36.2998553  44.8953833  23.5544083
  35.8378553  44.5033833  22.9274083  36.9998553  44.3823833  23.6464083
  36.3348553  44.7623833  23.4754083  40.8078553  40.5053833  28.9014083
  41.4858553  40.5233833  28.3524083  40.7628553  39.6693833  29.1464083
  40.9008553  40.3843833  28.8564083  41.4098553  51.0913833  31.6824083
  41.5478553  51.8513833  31.2754083  42.2008553  50.7263833  31.7094083
  41.5468553  51.1503833  31.6264083  38.3008553  42.9953833  23.5774083
  39.1178553  42.8083833  23.8204083  37.8238553  42.3813833  23.9734083
  38.3508553  42.8773833  23.6724083  42.5048553  48.9763833  26.1874083
  42.8528553  48.1773833  26.2174083  43.1698553  49.4803833  25.9324083
  42.6548553  48.9323833  26.1544083  42.5618553  48.4253833  22.3984083
  42.8928553  47.7813833  22.8844083  42.8018553  48.2143833  21.5874083
  42.6458553  48.2993833  22.3504083  44.5298553  42.5563833  33.7374083
  43.6818553  42.4573833  33.5594083  44.5588553  43.3013833  34.1914083
  44.4088553  42.6523833  33.7784083  38.8978553  38.0893833  22.8434083
  38.6018553  38.5903833  22.1934083  39.7648553  38.1673833  22.7864083
  38.9818553  38.1753833  22.7394083  49.0878553  35.5163833  32.8514083
  48.9298553  36.2853833  32.4694083  48.3158553  35.2963833  33.1954083
  48.9498553  35.5973833  32.8464083  41.8768553  37.2313833  25.0664083
  41.9498553  38.0913833  25.1954083  41.8388553  37.1563833  24.1984083
  41.8818553  37.3473833  24.9574083  46.5498553  40.1573833  17.3654083
  46.0998553  40.8383833  17.6724083  46.6638553  39.6533833  18.0684083
  46.5008553  40.1833833  17.5144083  34.7558553  42.6563833  26.5674083
  34.4998553  43.4873833  26.4924083  34.0918553  42.2733833  26.9844083
  34.6198553  42.7223833  26.6184083  34.6658553  52.3663833  24.4674083
  34.0738553  52.9243833  24.1544083  35.0918553  52.0973833  23.7554083
  34.6418553  52.4083833  24.3164083  40.5058553  50.2103833  21.9474083
  39.9268553  49.9353833  22.5394083  41.1298553  49.6013833  21.9724083
  40.5128553  50.0803833  22.0384083  46.6488553  52.4983833  19.4694083
  47.3758553  52.9703833  19.5714083  46.8778553  51.7043833  19.7494083
  46.7908553  52.4513833  19.5264083  44.8168553  52.8903833  21.4594083
  45.0308553  53.4173833  22.1214083  45.5838553  52.7163833  21.0804083
  44.9618553  52.9423833  21.5014083  37.7848553  37.4733833  27.0584083
  37.2638553  36.8453833  26.7504083  38.3758553  37.0363833  27.5294083
  37.7958553  37.3153833  27.0824083  41.0908553  39.6063833  36.3564083
  41.2078553  39.1523833  35.6204083  41.3788553  40.4043833  36.1534083
  41.1508553  39.6573833  36.2174083  36.2108553  51.0363833  22.3984083
  36.8668553  50.4613833  22.4134083  36.5998553  51.7853833  22.1774083
  36.3658553  51.0613833  22.3684083  51.9438553  40.1303833  23.6604083
  51.5978553  40.8083833  24.0864083  51.3078553  39.5323833  23.6764083
  51.7988553  40.1423833  23.7254083  47.2558553  52.9003833  29.7644083
  47.9998553  53.3563833  29.7544083  47.1348553  52.6863833  28.9274083
  47.3478553  52.9363833  29.6394083  36.8238553  39.2033833  35.3404083
  36.0458553  38.8133833  35.2684083  37.3148553  38.7913833  34.7494083
  36.7808553  39.0843833  35.2424083  37.0288553  49.5233833  25.8984083
  37.4518553  49.1673833  25.2244083  37.3528553  49.1013833  26.5904083
  37.1388553  49.4083833  25.9014083  40.2598553  52.3753833  25.1944083
  41.1038553  52.4793833  24.9994083  39.9628553  53.1933833  25.2624083
  40.3408553  52.5113833  25.1754083  43.4728553  36.8463833  34.5084083
  43.6508553  36.0373833  34.2334083  43.3298553  37.2873833  33.7694083
  43.4778553  36.7923833  34.3584083  44.0668553  41.7723833  23.2814083
  44.3538553  41.5403833  22.4914083  44.7988553  41.8513833  23.7504083
  44.2168553  41.7493833  23.2344083  44.7888553  42.1113833  18.4024083
  45.0698553  42.8993833  18.6514083  44.0128553  42.2763833  18.0394083
  44.7158553  42.2523833  18.3854083  48.8298553  54.0853833  19.8694083
  49.4948553  53.9373833  19.3244083  49.1898553  54.0023833  20.6594083
  48.9818553  54.0513833  19.9054083  39.2578553  53.5943833  30.9344083
  39.5498553  53.5273833  31.7544083  38.6318553  52.9893833  30.8894083
  39.2088553  53.4953833  31.0494083  51.6188553  38.4533833  29.0294083
  52.3758553  38.5253833  28.6014083  51.6818553  37.6803833  29.4284083
  51.7398553  38.3503833  29.0244083  34.1718553  39.7513833  32.9264083
  34.1678553  40.3383833  33.5724083  34.7658553  40.0633833  32.3694083
  34.2588553  39.8843833  32.9394083  46.5098553  50.0853833  33.4684083
  46.4758553  50.4673833  34.2524083  47.3638553  50.0433833  33.2974083
  46.6308553  50.1353833  33.5594083  43.6478553  50.2823833  18.2184083
  43.4668553  50.8273833  18.8754083  44.4138553  50.5723833  17.9174083
  43.7338553  50.4063833  18.2714083  47.1548553  38.1783833  19.2724083
  47.6948553  37.4963833  19.3484083  47.2168553  38.5763833  20.0464083
  47.2438553  38.1363833  19.3984083  35.1088553  39.3463833  21.8414083
  34.9948553  38.4823833  21.8724083  34.6338553  39.6403833  22.5114083
  35.0218553  39.2623833  21.9444083  37.2508553  51.7563833  30.0564083
  36.5528553  51.2483833  30.1824083  37.5108553  51.5513833  29.2484083
  37.1858553  51.6513833  29.9554083  44.4128553  40.5543833  20.5864083
  43.9048553  39.8923833  20.3324083  44.4648553  41.0583833  19.8764083
  44.3458553  40.5313833  20.4444083  44.9618553  53.2493833  30.9664083
  45.7298553  53.1693833  30.5604083  44.3788553  53.1283833  30.3284083
  44.9888553  53.2193833  30.8124083  44.4128553  37.4953833  20.4774083
  43.9578553  37.0933833  19.8514083  45.1858553  37.6503833  20.1024083
  44.4598553  37.4593833  20.3294083  51.2388553  53.8523833  23.8674083
  50.7838553  54.5693833  24.0684083  50.6248553  53.2813833  23.6254083
  51.0808553  53.8743833  23.8614083  43.0108553  39.8623833  24.9994083
  43.0848553  40.4303833  24.3414083  43.1318553  40.3543833  25.7094083
  43.0388553  40.0193833  25.0074083  48.2358553  49.6973833  23.4114083
  48.9368553  49.2153833  23.6004083  47.5758553  49.1283833  23.4564083
  48.2418553  49.5423833  23.4454083  38.6118553  50.6073833  32.6234083
  39.4528553  50.6703833  32.4014083  38.5748553  51.0043833  33.3994083
  38.7308553  50.6753833  32.7054083  40.5748553  46.1183833  27.3724083
  40.7468553  45.9083833  28.2014083  39.9198553  45.5843833  27.1564083
  40.5038553  46.0083833  27.4634083  46.8028553  40.0323833  30.8874083
  46.7078553  40.3513833  31.6934083  46.2098553  39.3933833  30.8494083
  46.7008553  39.9843833  31.0014083  41.3248553  46.0563833  29.9624083
  41.3778553  46.9033833  30.1644083  41.0398553  45.6863833  30.6994083
  41.2908553  46.1263833  30.1004083  47.5018553  46.7513833  29.0924083
  46.9878553  46.3393833  29.6634083  47.3758553  47.5953833  29.2734083
  47.4078553  46.8153833  29.2034083  48.0588553  35.9763833  23.7234083
  48.1078553  35.6583833  24.5344083  48.3818553  35.3323833  23.2304083
  48.1138553  35.8343833  23.7704083  34.1458553  50.4273833  36.1734083
  34.9018553  50.7763833  36.4314083  34.3228553  49.5743833  36.1164083
  34.2838553  50.3523833  36.2034083  50.5228553  40.2123833  32.0314083
  51.2948553  39.9873833  32.3684083  50.0478553  40.4293833  32.7314083
  50.5668553  40.2113833  32.1844083  38.0668553  39.4953833  25.0014083
  38.3388553  39.0653833  24.2934083  37.8908553  38.8593833  25.5724083
  38.0808553  39.3383833  24.9814083  50.7548553  47.1903833  19.2194083
  50.8738553  46.9033833  20.0344083  51.5618553  47.2113833  18.8894083
  50.8908553  47.1513833  19.2914083  37.8908553  46.9223833  24.5504083
  38.7418553  46.8423833  24.3774083  37.5338553  46.2403833  24.1384083
  37.9638553  46.8093833  24.4634083  36.6578553  53.6473833  25.7874083
  35.9848553  53.1493833  25.5424083  37.0608553  53.8323833  25.0364083
  36.6178553  53.6013833  25.6404083  36.2078553  40.5973833  28.0834083
  37.0508553  40.8173833  28.0404083  35.8188553  41.1703833  27.5524083
  36.2748553  40.7143833  27.9984083  52.9888553  51.6993833  33.4734083
  52.3068553  52.0093833  33.0264083  52.6198553  51.2413833  34.1184083
  52.8328553  51.6773833  33.5024083  48.6498553  43.7273833  18.8044083
  48.4298553  44.4583833  18.3824083  48.2018553  43.7783833  19.5514083
  48.5508553  43.8423833  18.8524083  40.2588553  46.9293833  22.7854083
  40.9718553  47.4243833  22.8754083  40.4808553  46.3623833  22.1594083
  40.3968553  46.9183833  22.7064083  52.8368553  38.5883833  18.2574083
  52.1748553  38.0203833  18.2804083  52.6438553  39.1003833  17.5774083
  52.7108553  38.5803833  18.1604083  34.4148553  48.5723833  26.1054083
  33.7478553  49.0603833  26.3814083  35.0948553  49.1173833  26.1344083
  34.4168553  48.7243833  26.1504083  42.0618553  42.2823833  36.2014083
  41.5778553  42.8593833  36.6434083  42.0338553  42.5773833  35.3804083
  41.9858553  42.4113833  36.1454083  53.1598553  42.9663833  30.8134083
  53.3748553  42.1663833  30.5374083  52.3098553  43.0263833  30.6244083
  53.0658553  42.8573833  30.7444083  34.4808553  45.2563833  21.2084083
  34.2958553  44.4173833  21.3604083  35.1398553  45.2203833  20.6384083
  34.5508553  45.1273833  21.1464083  50.8388553  38.1463833  20.5364083
  51.5848553  37.7393833  20.7354083  51.1018553  38.8613833  20.1114083
  50.9878553  38.1923833  20.5034083  44.7818553  50.6323833  25.1124083
  44.2588553  51.2663833  24.8194083  45.0918553  50.2683833  24.3834083
  44.7498553  50.6723833  24.9614083  34.6528553  49.4203833  20.7834083
  35.2048553  49.9893833  21.1474083  34.4208553  48.9053833  21.4484083
  34.6998553  49.4283833  20.9354083  38.8568553  48.4203833  27.8724083
  39.3238553  48.7093833  28.5504083  39.4288553  47.9423833  27.4184083
  39.0108553  48.3923833  27.9054083  47.2928553  40.4343833  25.6094083
  47.6368553  40.5863833  26.3964083  46.8398553  39.6963833  25.7224083
  47.2768553  40.3473833  25.7424083  34.4828553  47.8693833  18.4114083
  35.2388553  47.4373833  18.4694083  34.4978553  48.4013833  19.1024083
  34.5968553  47.8843833  18.5224083  35.4228553  46.0903833  26.4164083
  35.8538553  45.9613833  25.6694083  35.2178553  46.9383833  26.3904083
  35.4558553  46.1963833  26.3024083  41.7688553  39.6543833  20.0664083
  41.7668553  39.5373833  19.2014083  41.5878553  40.5023833  20.1584083
  41.7418553  39.7623833  19.9524083  50.8228553  52.0813833  31.5634083
  50.1518553  52.5953833  31.7814083  50.8858553  52.1813833  30.6994083
  50.7328553  52.1723833  31.4684083  39.5068553  49.6063833  24.6984083
  39.6328553  50.4493833  24.8854083  40.1748553  49.2073833  25.0944083
  39.6248553  49.6723833  24.7844083  37.6368553  43.0893833  34.5604083
  37.1008553  42.5833833  35.0284083  37.6568553  42.6993833  33.7804083
  37.5598553  42.9563833  34.5144083  38.1218553  42.4863833  19.7004083
  37.9938553  42.0383833  20.4384083  37.5398553  42.1443833  19.1484083
  38.0168553  42.3693833  19.7284083  38.2888553  44.3163833  26.2994083
  37.5078553  44.2573833  25.9164083  38.3608553  43.5643833  26.7364083
  38.1838553  44.1973833  26.3074083  38.7188553  44.0533833  29.7674083
  38.7438553  43.3783833  29.2164083  38.0728553  44.5493833  29.4554083
  38.6278553  44.0263833  29.6404083  48.6138553  41.7663833  28.1634083
  47.9518553  42.0943833  28.6264083  48.8008553  42.4003833  27.5944083
  48.5438553  41.9083833  28.1474083  42.8188553  52.8303833  29.1594083
  42.5418553  52.1893833  28.6364083  42.6108553  53.5563833  28.7214083
  42.7478553  52.8433833  29.0174083  45.2588553  37.6723833  31.5924083
  45.4078553  36.8473833  31.3494083  45.6378553  37.7273833  32.3764083
  45.3368553  37.5583833  31.6724083  46.8068553  39.7353833  21.6744083
  47.2968553  40.4523833  21.5974083  46.0168553  39.9963833  21.4114083
  46.7628553  39.8793833  21.6244083  36.5178553  45.4083833  35.3264083
  36.4808553  45.9093833  34.6124083  36.8488553  44.6563833  35.0314083
  36.5608553  45.3703833  35.1774083  48.1208553  47.6133833  33.5844083
  48.6048553  48.3313833  33.6824083  48.5148553  47.1863833  32.9334083
  48.2508553  47.6563833  33.5024083  42.4168553  50.4583833  34.7614083
  42.7708553  50.2803833  35.5384083  41.9808553  49.7293833  34.5624083
  42.4048553  50.3243833  34.8474083  43.3888553  41.2053833  27.3994083
  43.8688553  41.9043833  27.6074083  43.7618553  40.5583833  27.8504083
  43.5148553  41.2133833  27.4964083  45.5778553  44.3743833  19.6734083
  45.5698553  45.0963833  19.1834083  44.9388553  44.5093833  20.2504083
  45.4828553  44.5013833  19.6864083  50.5498553  48.2443833  23.6544083
  50.9058553  47.8943833  24.3694083  50.5418553  47.5833833  23.0844083
  50.6018553  48.0943833  23.6754083  46.5948553  51.3103833  27.4984083
  45.9918553  51.0143833  26.9414083  47.1398553  51.7623833  26.9894083
  46.5858553  51.3333833  27.3404083  46.6078553  48.1613833  26.8984083
  45.8108553  48.3853833  27.1724083  46.8658553  47.5673833  27.4834083
  46.5278553  48.1063833  27.0254083  40.4998553  52.9733833  21.3464083
  40.3528553  52.1973833  21.7174083  41.1888553  52.8263833  20.8314083
  40.5798553  52.8363833  21.3254083  40.1708553  36.7163833  19.3344083
  40.2678553  36.6093833  20.1954083  39.4628553  37.2223833  19.2694083
  40.0808553  36.7753833  19.4524083  42.7918553  52.4893833  19.7484083
  43.4138553  52.6523833  20.3384083  42.8278553  53.1803833  19.2164083
  42.8888553  52.6153833  19.7574083  49.8678553  46.1593833  31.7444083
  49.9228553  46.2843833  30.8824083  50.6208553  46.4793833  32.0464083
  49.9868553  46.2243833  31.6614083  46.0588553  51.5083833  36.0214083
  46.2228553  51.7913833  36.8304083  46.3218553  52.1693833  35.5164083
  46.1218553  51.6483833  36.0664083  50.8998553  36.4573833  34.7314083
  50.2628553  36.0573833  34.2894083  50.9258553  36.0263833  35.4894083
  50.8098553  36.3353833  34.7774083  37.2928553  45.0233833  20.5774083
  37.6168553  44.2443833  20.3554083  37.9388553  45.3913833  21.0324083
  37.4358553  44.9623833  20.6114083  45.5988553  45.9653833  31.3444083
  45.4438553  46.5753833  31.9484083  46.1328553  45.4073833  31.7504083
  45.6548553  45.9733833  31.4934083  34.2898553  36.6843833  21.5454083
  34.4188553  35.9763833  21.0534083  33.9228553  36.3663833  22.2704083
  34.2548553  36.5323833  21.5804083  43.9828553  44.3653833  22.0024083
  44.0418553  45.0153833  22.5814083  43.7938553  43.6693833  22.4934083
  43.9638553  44.3583833  22.1604083  49.2088553  48.6943833  27.8714083
  48.7298553  48.9923833  27.2054083  48.8528553  47.9183833  28.0494083
  49.0858553  48.6233833  27.7994083  38.4788553  38.8823833  18.5144083
  37.9678553  38.9353833  17.8084083  39.2628553  39.1223833  18.2184083
  38.5188553  38.9253833  18.3664083  43.2058553  46.4123833  26.4334083
  42.3588553  46.2183833  26.5144083  43.5298553  46.2473833  27.2264083
  43.1278553  46.3593833  26.5624083  39.9578553  53.1423833  17.3194083
  40.3968553  52.4453833  17.6074083  40.1648553  53.7663833  17.8924083
  40.0538553  53.1313833  17.4464083  37.0538553  46.1053833  28.7494083
  37.7758553  46.5933833  28.7124083  36.7838553  46.0753833  27.9204083
  37.1208553  46.1733833  28.6214083  40.2838553  41.2763833  25.4844083
  41.1298553  41.0863833  25.5824083  39.9138553  40.4993833  25.3464083
  40.3538553  41.1333833  25.4784083  52.9008553  52.8603833  19.8114083
  53.5948553  52.3933833  19.5634083  52.3618553  52.2623833  20.1484083
  52.9238553  52.7023833  19.8244083  35.1048553  42.6143833  22.1394083
  35.5938553  42.3223833  22.8004083  35.2338553  42.0213833  21.5124083
  35.1958553  42.4833833  22.1444083  50.1398553  45.6363833  28.9904083
  50.1328553  44.8603833  29.3884083  49.2988553  45.8703833  28.9834083
  50.0148553  45.5563833  29.0484083  39.6298553  44.0483833  17.6254083
  39.0198553  43.6433833  18.0994083  39.2438553  44.1663833  16.8524083
  39.4828553  44.0053833  17.5814083  36.4488553  47.1573833  33.0274083
  36.0278553  46.6393833  32.4664083  36.0968553  47.9433833  32.8844083
  36.3348553  47.1973833  32.9234083  51.3958553  45.7073833  26.4274083
  51.1098553  46.1083833  27.1474083  52.2558553  45.6453833  26.5544083
  51.4808553  45.7573833  26.5524083  41.0848553  42.5093833  20.3354083
  41.3568553  43.3353833  20.4024083  40.2218553  42.5843833  20.2394083
  40.9978553  42.6423833  20.3304083  49.0578553  39.6313833  34.9674083
  48.5328553  40.0903833  35.4914083  48.6968553  38.8363833  34.9614083
  48.9268553  39.5813833  35.0434083  34.5648553  38.4793833  26.8714083
  34.6088553  38.8233833  26.0704083  35.3198553  38.7163833  27.2384083
  34.6828553  38.5653833  26.8074083  52.5268553  51.3403833  26.9564083
  52.8168553  51.5973833  26.1754083  53.2218553  51.4363833  27.4754083
  52.6728553  51.3923833  26.9174083  47.5498553  43.2003833  35.0434083
  47.6228553  43.3043833  35.9064083  46.9158553  43.7583833  34.8224083
  47.4668553  43.2983833  35.1384083  49.8178553  43.5193833  33.4084083
  50.1368553  44.3053833  33.6114083  49.4478553  43.2493833  34.1514083
  49.8108553  43.5953833  33.5484083  49.1318553  49.9433833  18.9384083
  49.4658553  49.1373833  18.9734083  48.3768553  49.8713833  19.3684083
  49.0698553  49.8133833  19.0074083  49.6138553  41.7773833  24.5974083
  48.8688553  41.4543833  24.9154083  49.6158553  42.6033833  24.8774083
  49.5038553  41.8513833  24.6854083  52.5158553  44.0613833  36.1434083
  52.4638553  43.7203833  35.3424083  53.2528553  44.5283833  36.1214083
  52.6168553  44.0803833  36.0214083  52.0538553  47.7373833  32.3494083
  52.6818553  47.1883833  32.0934083  51.9928553  48.3023833  31.6874083
  52.1378553  47.7403833  32.2134083  46.5058553  47.8183833  18.3414083
  47.1898553  47.3043833  18.1724083  46.0888553  47.8643833  17.5764083
  46.5448553  47.7493833  18.2034083  41.1878553  48.9683833  29.6454083
  40.8898553  49.5603833  30.2124083  41.2428553  49.4103833  28.8964083
  41.1518553  49.1213833  29.6184083  39.1668553  47.9183833  33.0434083
  38.3608553  47.6283833  33.2104083  39.0778553  48.7863833  33.0494083
  39.0348553  48.0033833  33.0684083  48.5258553  38.1073833  32.0584083
  49.2698553  38.5593833  31.9954083  47.9598553  38.5773833  31.5894083
  48.5528553  38.2443833  31.9804083  43.7038553  45.3913833  29.1364083
  44.1798553  45.7653833  29.7644083  42.8808553  45.5253833  29.3954083
  43.6528553  45.4663833  29.2674083  40.4138553  40.9943833  31.8774083
  40.5748553  40.2503833  32.3044083  40.3688553  40.7453833  31.0424083
  40.4308553  40.8473833  31.8174083  42.9678553  52.7843833  24.3644083
  43.5138553  53.4633833  24.4184083  42.6178553  52.8663833  23.5694083
  42.9968553  52.8973833  24.2544083  49.8108553  36.0873833  29.7284083
  49.5308553  36.9123833  29.6844083  50.5268553  36.1403833  30.2244083
  49.8758553  36.2173833  29.7954083  42.1658553  36.8023833  31.7574083
  42.8708553  37.1223833  31.3554083  42.4068553  35.9953833  31.9844083
  42.3048553  36.7303833  31.7314083  41.1508553  51.0123833  27.7534083
  40.5268553  51.5943833  27.5714083  41.3988553  50.7263833  26.9674083
  41.0948553  51.0563833  27.6104083  45.4598553  47.6463833  34.7424083
  46.2168553  47.9323833  34.4164083  44.9128553  47.6983833  34.0644083
  45.4908553  47.6963833  34.5934083  49.3688553  50.1963833  33.2464083
  49.7148553  50.4663833  34.0004083  49.6628553  50.7783833  32.6664083
  49.4638553  50.3223833  33.2724083  51.2318553  42.3423833  18.5854083
  51.6098553  43.0193833  18.1854083  50.3898553  42.5663833  18.6164083
  51.1628553  42.4753833  18.5304083  42.7448553  45.7883833  17.6684083
  41.9398553  45.6113833  17.3834083  42.7118553  46.6393833  17.8604083
  42.6208553  45.8873833  17.6554083  38.6748553  41.8553833  27.8184083
  39.1148553  41.7523833  27.0724083  39.2198553  41.5423833  28.4234083
  38.8198553  41.7943833  27.7974083  46.6908553  40.9573833  33.4104083
  46.0428553  41.4273833  33.7584083  47.2558553  40.8683833  34.0694083
  46.6788553  41.0133833  33.5594083  46.3788553  42.4943833  29.7084083
  46.6808553  42.9143833  30.4114083  46.4148553  41.6543833  29.9404083
  46.4288553  42.4323833  29.8464083  43.8038553  52.6613833  33.6334083
  44.2818553  52.0613833  33.2174083  43.4528553  52.2183833  34.2984083
  43.8228553  52.5073833  33.6704083  48.9268553  41.9413833  21.9604083
  49.1338553  41.7403833  22.7844083  49.6828553  42.2093833  21.6184083
  49.0688553  41.9513833  22.0314083  42.2218553  36.8403833  27.8654083
  41.3958553  36.6913833  28.1024083  42.1818553  36.8753833  26.9944083
  42.0938553  36.8233833  27.7714083  49.9488553  38.0243833  23.4344083
  49.2348553  37.5533833  23.6054083  49.7868553  38.3653833  22.6484083
  49.8198553  38.0053833  23.3434083  50.3918553  45.9683833  21.8144083
  50.8678553  45.2393833  21.7664083  49.5708553  45.6823833  21.7384083
  50.3408553  45.8183833  21.7954083  43.8628553  47.8803833  32.6534083
  43.0678553  47.8163833  33.0044083  43.9338553  48.7273833  32.4584083
  43.7558553  47.9953833  32.6764083  34.7868553  37.2383833  33.9004083
  34.6468553  38.0333833  33.5694083  34.0008553  36.9953833  34.1894083
  34.6498553  37.3203833  33.8944083  39.6928553  54.0873833  27.9704083
  39.7038553  54.1463833  28.8404083  39.2678553  53.3403833  27.8204083
  39.6318553  53.9853833  28.0764083  37.8508553  39.9823833  21.1254083
  37.9768553  39.6533833  20.3274083  37.0388553  39.7333833  21.3244083
  37.7498553  39.8973833  21.0374083  46.6078553  47.1353833  24.1694083
  46.6838553  47.4763833  24.9684083  46.7768553  46.2883833  24.2904083
  46.6438553  47.0603833  24.3054083  44.1298553  46.4093833  23.7344083
  43.8318553  46.0943833  24.4914083  44.8248553  46.8823833  23.9694083
  44.1888553  46.4323833  23.8814083  44.3518553  50.5273833  31.7614083
  45.0388553  50.4133833  32.2864083  44.4858553  51.3183833  31.4174083
  44.4728553  50.6273833  31.7884083  52.5278553  43.1363833  33.5724083
  51.6728553  43.0143833  33.6984083  52.6808553  42.7413833  32.8094083
  52.4238553  43.0593833  33.4784083  47.0408553  43.8013833  32.1484083
  46.7858553  43.0823833  32.5704083  47.8618553  43.9173833  32.4184083
  47.1248553  43.7123833  32.2504083  36.4568553  53.5853833  33.4124083
  35.8028553  53.0163833  33.5104083  36.0818553  54.3583833  33.5634083
  36.3048553  53.6153833  33.4494083  44.9748553  44.9913833  35.3354083
  45.2978553  45.6773833  34.9034083  44.2708553  45.3143833  35.7374083
  44.9178553  45.1403833  35.3304083  48.0588553  53.3653833  26.2644083
  47.6078553  54.0083833  26.6434083  48.7668553  53.2863833  26.7694083
  48.0968553  53.4483833  26.3954083  44.7598553  48.4553833  29.1944083
  44.0658553  48.8573833  29.5374083  45.4368553  48.8883833  29.5334083
  44.7568553  48.5783833  29.2954083  50.1368553  51.0483833  35.7744083
  50.9128553  50.6583833  35.8574083  49.6678553  50.7123833  36.4294083
  50.1818553  50.9413833  35.8834083  37.8278553  41.9933833  31.5414083
  38.2028553  42.6123833  31.0544083  38.5018553  41.5193833  31.8264083
  37.9828553  42.0153833  31.5114083  35.6028553  40.4413833  30.8164083
  35.6798553  40.2723833  29.9634083  36.3488553  40.8473833  31.0134083
  35.7238553  40.4763833  30.7194083  51.1618553  43.0813833  21.2564083
  51.2648553  43.0233833  20.3924083  51.9028553  42.7493833  21.5744083
  51.2868553  43.0243833  21.1754083  38.1568553  37.8513833  33.2274083
  38.0758553  37.0073833  33.4334083  37.8428553  37.8953833  32.4144083
  38.0988553  37.7333833  33.1374083  45.0818553  50.0463833  22.3634083
  44.8768553  50.8793833  22.2044083  44.3068553  49.6643833  22.4854083
  44.9368553  50.1133833  22.3584083  50.2638553  43.2273833  30.6124083
  50.2618553  42.3643833  30.7364083  50.3308553  43.5513833  31.4194083
  50.2738553  43.1473833  30.7494083  34.9998553  45.6673833  31.0404083
  35.3198553  45.8863833  30.2594083  34.8998553  44.8023833  30.9854083
  35.0318553  45.5723833  30.9174083  36.4558553  41.6033833  17.6584083
  35.7838553  41.6173833  18.2144083  36.5508553  40.7553833  17.4744083
  36.3708553  41.4803833  17.7134083  46.1428553  38.0273833  34.3944083
  46.2348553  38.7393833  34.8884083  45.5058553  37.5823833  34.7914083
  46.0618553  38.0663833  34.5264083  45.1368553  38.2173833  25.2484083
  44.4368553  38.7353833  25.1924083  45.1748553  37.8373833  24.4644083
  45.0388553  38.2383833  25.1244083  40.4438553  50.3083833  18.7724083
  40.8848553  50.3883833  19.5204083  39.6388553  50.0923833  19.0304083
  40.3898553  50.2883833  18.9214083  48.7348553  38.7333833  28.0484083
  49.5898553  38.8323833  28.1934083  48.3658553  39.2863833  28.6134083
  48.8068553  38.8303833  28.1534083  39.7628553  44.9593833  32.4254083
  39.3668553  45.7333833  32.5004083  39.3568553  44.5863833  31.7494083
  39.6448553  45.0183833  32.3364083  49.0388553  44.0133833  26.5394083
  49.7048553  44.5543833  26.6994083  48.6938553  44.3243833  25.8004083
  49.0858553  44.1393833  26.4544083  49.3518553  52.0793833  22.3464083
  49.1778553  51.4253833  22.8964083  50.0648553  51.8083833  21.9234083
  49.4318553  51.9423833  22.3654083  37.7728553  49.3783833  19.3734083
  37.5288553  49.0713833  20.1534083  37.7398553  48.6753833  18.8574083
  37.7318553  49.2293833  19.4124083  40.5918553  47.6233833  18.1164083
  39.7738553  47.3553833  18.2564083  40.5638553  48.4753833  18.3014083
  40.4668553  47.7103833  18.1644083  40.1918553  37.9363833  29.8754083
  39.3278553  38.0203833  29.9554083  40.4118553  37.4223833  30.5444083
  40.0968553  37.8733833  29.9864083  52.2098553  36.5713833  31.2044083
  52.1578553  36.5273833  32.0744083  52.8968553  36.0683833  31.0144083
  52.3038553  36.4913833  31.3044083  44.2948553  38.6843833  28.2494083
  43.5578553  38.2303833  28.3624083  44.8658553  38.2823833  28.7724083
  44.2698553  38.5573833  28.3434083  47.0268553  49.5323833  30.0374083
  47.2328553  49.8333833  30.8294083  46.9658553  50.2543833  29.5524083
  47.0478553  49.6833833  30.0824083  46.5608553  53.7463833  34.2834083
  45.8078553  53.7283833  33.8424083  46.7288553  54.5983833  34.3674083
  46.4748553  53.8693833  34.2304083  41.7978553  43.0133833  33.4534083
  41.4758553  42.4373833  32.8834083  41.4388553  43.7683833  33.2074083
  41.6978553  43.0393833  33.3334083  42.5938553  36.2653833  18.0804083
  42.6718553  36.5123833  17.2474083  41.8508553  36.6423833  18.3384083
  42.4958553  36.3573833  17.9954083  51.8388553  48.1713833  29.4954083
  51.8068553  47.3093833  29.3604083  51.1458553  48.4733833  29.0614083
  51.7318553  48.0883833  29.4114083  40.2328553  53.3693833  33.7014083
  40.2738553  53.4953833  34.5644083  40.8838553  52.8093833  33.5454083
  40.3348553  53.3053833  33.8064083  49.9438553  51.4313833  28.2924083
  50.4708553  51.3483833  27.6014083  49.5528553  50.6533833  28.3464083
  49.9638553  51.3043833  28.1984083  37.4118553  38.0193833  30.5234083
  37.0688553  37.2523833  30.2894083  36.7168553  38.5433833  30.5874083
  37.2588553  37.9833833  30.4984083  46.4578553  36.8753833  27.5004083
  47.1278553  37.4193833  27.6274083  45.9548553  37.2993833  26.9274083
  46.4828553  37.0183833  27.4344083  37.8258553  51.7523833  35.0614083
  38.4208553  52.1833833  35.5334083  37.4618553  52.3763833  34.5724083
  37.8598553  51.9083833  35.0584083  45.8168553  42.6833833  24.9934083
  46.3678553  42.0763833  25.2934083  45.3918553  42.9463833  25.7084083
  45.8358553  42.6323833  25.1424083  36.0648553  41.3333833  24.4794083
  35.6968553  41.6353833  25.2104083  36.5988553  40.7043833  24.7634083
  36.0888553  41.2853833  24.6294083  35.7528553  49.7413833  31.9904083
  35.1788553  50.1573833  32.4994083  36.4858553  50.2063833  32.0854083
  35.7768553  49.8713833  32.0794083  47.7868553  44.5143833  21.5554083
  47.8548553  43.6643833  21.7364083  46.9638553  44.6003833  21.2774083
  47.6748553  44.4013833  21.5414083  37.5388553  53.0083833  20.7654083
  37.3938553  53.1643833  19.9194083  38.4048553  53.0873833  20.8434083
  37.6458553  53.0433833  20.6524083  41.7058553  45.4053833  20.4934083
  41.8058553  45.5443833  19.6384083  42.5238553  45.3453833  20.7894083
  41.8408553  45.4163833  20.4104083  50.8658553  53.4693833  17.9734083
  51.5028553  53.3353833  18.5544083  50.5248553  52.6753833  17.8564083
  50.9098553  53.3323833  18.0414083  51.0608553  45.8873833  34.7064083
  51.6948553  45.7173833  35.2804083  51.4778553  46.2903833  34.0544083
  51.2158553  45.9223833  34.6954083  46.9408553  49.7343833  20.2954083
  46.6898553  49.6063833  21.1214083  46.6238553  49.0393833  19.8744083
  46.8568553  49.6133833  20.3554083  51.6858553  40.4513833  35.4444083
  51.4898553  41.0953833  35.9994083  50.9638553  39.9613833  35.4364083
  51.5508553  40.4743833  35.5254083  51.5848553  41.3923833  28.4154083
  50.7518553  41.6423833  28.3434083  51.5288553  40.5523833  28.6444083
  51.4538553  41.3053833  28.4384083  40.8448553  38.3803833  33.6094083
  41.0788553  37.8043833  32.9964083  40.0028553  38.1993833  33.7504083
  40.7548553  38.2683833  33.5394083  48.4718553  45.9983833  36.0614083
  49.3428553  45.9623833  36.0254083  48.2528553  46.4183833  35.3294083
  48.5688553  46.0543833  35.9484083  38.2258553  51.8233833  27.2424083
  38.1468553  51.0133833  26.9264083  37.7818553  52.3103833  26.6704083
  38.1488553  51.7753833  27.1114083  43.8268553  47.9423833  19.7254083
  44.5438553  47.5953833  19.3694083  43.7928553  48.7423833  19.3774083
  43.9278553  48.0093833  19.6214083  35.7978553  54.0673833  30.8234083
  36.2908553  54.0113833  31.5414083  35.9858553  53.3343833  30.3884083
  35.8988553  53.9503833  30.8654083  45.2358553  36.5833833   3.9641673
  44.9908553  37.0713833   3.2841673  46.0988553  36.5103833   3.8641673
  45.3268553  36.6443833   3.8491673  45.0448553  43.4993833   8.6351673
  44.5208553  44.0953833   8.9981673  45.4418553  43.1313833   9.3191673
  45.0258553  43.5333833   8.7901673  34.9138553  47.6393833   4.0911673
  34.4728553  47.7573833   4.8341673  34.6308553  46.8643833   3.8061673
  34.8068553  47.5423833   4.1591673  47.7158553  44.5663833   5.3111673
  47.7958553  44.5703833   4.4421673  47.1318553  43.9343833   5.4601673
  47.6408553  44.4733833   5.2051673  37.4228553  48.3353833   3.1701673
  38.0308553  48.1653833   3.7731673  36.6718553  48.1953833   3.5911673
  37.4018553  48.2893833   3.3211673  41.7048553  37.6703833   3.1191673
  41.6348553  38.3473833   2.5731673  42.4458553  37.2823833   2.8701673
  41.8038553  37.7133833   3.0011673  34.8538553  50.3743833  10.3461673
  34.9828553  50.0943833  11.1621673  34.2438553  49.8333833  10.0371673
  34.7828553  50.2533833  10.4211673  41.4278553  47.8993833  15.4131673
  41.1918553  47.8963833  16.2531673  40.6798553  47.7513833  14.9891673
  41.2818553  47.8763833  15.4741673  36.2998553  44.8953833   4.5481673
  35.8378553  44.5033833   3.9211673  36.9998553  44.3823833   4.6401673
  36.3348553  44.7623833   4.4691673  40.8078553  40.5053833   9.8951673
  41.4858553  40.5233833   9.3461673  40.7628553  39.6693833  10.1401673
  40.9008553  40.3843833   9.8501673  41.4098553  51.0913833  12.6761673
  41.5478553  51.8513833  12.2691673  42.2008553  50.7263833  12.7031673
  41.5468553  51.1503833  12.6201673  38.3008553  42.9953833   4.5711673
  39.1178553  42.8083833   4.8141673  37.8238553  42.3813833   4.9671673
  38.3508553  42.8773833   4.6661673  42.5048553  48.9763833   7.1811673
  42.8528553  48.1773833   7.2111673  43.1698553  49.4803833   6.9261673
  42.6548553  48.9323833   7.1481673  42.5618553  48.4253833   3.3921673
  42.8928553  47.7813833   3.8781673  42.8018553  48.2143833   2.5811673
  42.6458553  48.2993833   3.3441673  44.5298553  42.5563833  14.7311673
  43.6818553  42.4573833  14.5531673  44.5588553  43.3013833  15.1851673
  44.4088553  42.6523833  14.7721673  38.8978553  38.0893833   3.8371673
  38.6018553  38.5903833   3.1871673  39.7648553  38.1673833   3.7801673
  38.9818553  38.1753833   3.7331673  49.0878553  35.5163833  13.8451673
  48.9298553  36.2853833  13.4631673  48.3158553  35.2963833  14.1891673
  48.9498553  35.5973833  13.8401673  41.8768553  37.2313833   6.0601673
  41.9498553  38.0913833   6.1891673  41.8388553  37.1563833   5.1921673
  41.8818553  37.3473833   5.9511673  34.7558553  42.6563833   7.5611673
  34.4998553  43.4873833   7.4861673  34.0918553  42.2733833   7.9781673
  34.6198553  42.7223833   7.6121673  34.6658553  52.3663833   5.4611673
  34.0738553  52.9243833   5.1481673  35.0918553  52.0973833   4.7491673
  34.6418553  52.4083833   5.3101673  40.5058553  50.2103833   2.9411673
  39.9268553  49.9353833   3.5331673  41.1298553  49.6013833   2.9661673
  40.5128553  50.0803833   3.0321673  44.8168553  52.8903833   2.4531673
  45.0308553  53.4173833   3.1151673  45.5838553  52.7163833   2.0741673
  44.9618553  52.9423833   2.4951673  37.7848553  37.4733833   8.0521673
  37.2638553  36.8453833   7.7441673  38.3758553  37.0363833   8.5231673
  37.7958553  37.3153833   8.0761673  41.0908553  39.6063833  17.3501673
  41.2078553  39.1523833  16.6141673  41.3788553  40.4043833  17.1471673
  41.1508553  39.6573833  17.2111673  36.2108553  51.0363833   3.3921673
  36.8668553  50.4613833   3.4071673  36.5998553  51.7853833   3.1711673
  36.3658553  51.0613833   3.3621673  51.9438553  40.1303833   4.6541673
  51.5978553  40.8083833   5.0801673  51.3078553  39.5323833   4.6701673
  51.7988553  40.1423833   4.7191673  47.2558553  52.9003833  10.7581673
  47.9998553  53.3563833  10.7481673  47.1348553  52.6863833   9.9211673
  47.3478553  52.9363833  10.6331673  36.8238553  39.2033833  16.3341673
  36.0458553  38.8133833  16.2621673  37.3148553  38.7913833  15.7431673
  36.7808553  39.0843833  16.2361673  37.0288553  49.5233833   6.8921673
  37.4518553  49.1673833   6.2181673  37.3528553  49.1013833   7.5841673
  37.1388553  49.4083833   6.8951673  40.2598553  52.3753833   6.1881673
  41.1038553  52.4793833   5.9931673  39.9628553  53.1933833   6.2561673
  40.3408553  52.5113833   6.1691673  43.4728553  36.8463833  15.5021673
  43.6508553  36.0373833  15.2271673  43.3298553  37.2873833  14.7631673
  43.4778553  36.7923833  15.3521673  44.0668553  41.7723833   4.2751673
  44.3538553  41.5403833   3.4851673  44.7988553  41.8513833   4.7441673
  44.2168553  41.7493833   4.2281673  39.2578553  53.5943833  11.9281673
  39.5498553  53.5273833  12.7481673  38.6318553  52.9893833  11.8831673
  39.2088553  53.4953833  12.0431673  51.6188553  38.4533833  10.0231673
  52.3758553  38.5253833   9.5951673  51.6818553  37.6803833  10.4221673
  51.7398553  38.3503833  10.0181673  34.1718553  39.7513833  13.9201673
  34.1678553  40.3383833  14.5661673  34.7658553  40.0633833  13.3631673
  34.2588553  39.8843833  13.9331673  46.5098553  50.0853833  14.4621673
  46.4758553  50.4673833  15.2461673  47.3638553  50.0433833  14.2911673
  46.6308553  50.1353833  14.5531673  35.1088553  39.3463833   2.8351673
  34.9948553  38.4823833   2.8661673  34.6338553  39.6403833   3.5051673
  35.0218553  39.2623833   2.9381673  37.2508553  51.7563833  11.0501673
  36.5528553  51.2483833  11.1761673  37.5108553  51.5513833  10.2421673
  37.1858553  51.6513833  10.9491673  44.9618553  53.2493833  11.9601673
  45.7298553  53.1693833  11.5541673  44.3788553  53.1283833  11.3221673
  44.9888553  53.2193833  11.8061673  51.2388553  53.8523833   4.8611673
  50.7838553  54.5693833   5.0621673  50.6248553  53.2813833   4.6191673
  51.0808553  53.8743833   4.8551673  43.0108553  39.8623833   5.9931673
  43.0848553  40.4303833   5.3351673  43.1318553  40.3543833   6.7031673
  43.0388553  40.0193833   6.0011673  48.2358553  49.6973833   4.4051673
  48.9368553  49.2153833   4.5941673  47.5758553  49.1283833   4.4501673
  48.2418553  49.5423833   4.4391673  38.6118553  50.6073833  13.6171673
  39.4528553  50.6703833  13.3951673  38.5748553  51.0043833  14.3931673
  38.7308553  50.6753833  13.6991673  37.6188553  35.6853833   4.3411673
  38.1548553  36.3733833   4.3311673  37.6218553  35.4113833   3.5131673
  37.6978553  35.7463833   4.2171673  40.5748553  46.1183833   8.3661673
  40.7468553  45.9083833   9.1951673  39.9198553  45.5843833   8.1501673
  40.5038553  46.0083833   8.4571673  46.8028553  40.0323833  11.8811673
  46.7078553  40.3513833  12.6871673  46.2098553  39.3933833  11.8431673
  46.7008553  39.9843833  11.9951673  41.3248553  46.0563833  10.9561673
  41.3778553  46.9033833  11.1581673  41.0398553  45.6863833  11.6931673
  41.2908553  46.1263833  11.0941673  47.5018553  46.7513833  10.0861673
  46.9878553  46.3393833  10.6571673  47.3758553  47.5953833  10.2671673
  47.4078553  46.8153833  10.1971673  48.0588553  35.9763833   4.7171673
  48.1078553  35.6583833   5.5281673  48.3818553  35.3323833   4.2241673
  48.1138553  35.8343833   4.7641673  34.1458553  50.4273833  17.1671673
  34.9018553  50.7763833  17.4251673  34.3228553  49.5743833  17.1101673
  34.2838553  50.3523833  17.1971673  50.5228553  40.2123833  13.0251673
  51.2948553  39.9873833  13.3621673  50.0478553  40.4293833  13.7251673
  50.5668553  40.2113833  13.1781673  38.0668553  39.4953833   5.9951673
  38.3388553  39.0653833   5.2871673  37.8908553  38.8593833   6.5661673
  38.0808553  39.3383833   5.9751673  37.8908553  46.9223833   5.5441673
  38.7418553  46.8423833   5.3711673  37.5338553  46.2403833   5.1321673
  37.9638553  46.8093833   5.4571673  36.6578553  53.6473833   6.7811673
  35.9848553  53.1493833   6.5361673  37.0608553  53.8323833   6.0301673
  36.6178553  53.6013833   6.6341673  36.2078553  40.5973833   9.0771673
  37.0508553  40.8173833   9.0341673  35.8188553  41.1703833   8.5461673
  36.2748553  40.7143833   8.9921673  52.9888553  51.6993833  14.4671673
  52.3068553  52.0093833  14.0201673  52.6198553  51.2413833  15.1121673
  52.8328553  51.6773833  14.4961673  40.2588553  46.9293833   3.7791673
  40.9718553  47.4243833   3.8691673  40.4808553  46.3623833   3.1531673
  40.3968553  46.9183833   3.7001673  34.4148553  48.5723833   7.0991673
  33.7478553  49.0603833   7.3751673  35.0948553  49.1173833   7.1281673
  34.4168553  48.7243833   7.1441673  42.0618553  42.2823833  17.1951673
  41.5778553  42.8593833  17.6371673  42.0338553  42.5773833  16.3741673
  41.9858553  42.4113833  17.1391673  53.1598553  42.9663833  11.8071673
  53.3748553  42.1663833  11.5311673  52.3098553  43.0263833  11.6181673
  53.0658553  42.8573833  11.7381673  34.4808553  45.2563833   2.2021673
  34.2958553  44.4173833   2.3541673  35.1398553  45.2203833   1.6321673
  34.5508553  45.1273833   2.1401673  44.7818553  50.6323833   6.1061673
  44.2588553  51.2663833   5.8131673  45.0918553  50.2683833   5.3771673
  44.7498553  50.6723833   5.9551673  34.6528553  49.4203833   1.7771673
  35.2048553  49.9893833   2.1411673  34.4208553  48.9053833   2.4421673
  34.6998553  49.4283833   1.9291673  38.8568553  48.4203833   8.8661673
  39.3238553  48.7093833   9.5441673  39.4288553  47.9423833   8.4121673
  39.0108553  48.3923833   8.8991673  47.2928553  40.4343833   6.6031673
  47.6368553  40.5863833   7.3901673  46.8398553  39.6963833   6.7161673
  47.2768553  40.3473833   6.7361673  35.4228553  46.0903833   7.4101673
  35.8538553  45.9613833   6.6631673  35.2178553  46.9383833   7.3841673
  35.4558553  46.1963833   7.2961673  50.8228553  52.0813833  12.5571673
  50.1518553  52.5953833  12.7751673  50.8858553  52.1813833  11.6931673
  50.7328553  52.1723833  12.4621673  39.5068553  49.6063833   5.6921673
  39.6328553  50.4493833   5.8791673  40.1748553  49.2073833   6.0881673
  39.6248553  49.6723833   5.7781673  37.6368553  43.0893833  15.5541673
  37.1008553  42.5833833  16.0221673  37.6568553  42.6993833  14.7741673
  37.5598553  42.9563833  15.5081673  38.2888553  44.3163833   7.2931673
  37.5078553  44.2573833   6.9101673  38.3608553  43.5643833   7.7301673
  38.1838553  44.1973833   7.3011673  38.7188553  44.0533833  10.7611673
  38.7438553  43.3783833  10.2101673  38.0728553  44.5493833  10.4491673
  38.6278553  44.0263833  10.6341673  48.6138553  41.7663833   9.1571673
  47.9518553  42.0943833   9.6201673  48.8008553  42.4003833   8.5881673
  48.5438553  41.9083833   9.1411673  42.8188553  52.8303833  10.1531673
  42.5418553  52.1893833   9.6301673  42.6108553  53.5563833   9.7151673
  42.7478553  52.8433833  10.0111673  45.2588553  37.6723833  12.5861673
  45.4078553  36.8473833  12.3431673  45.6378553  37.7273833  13.3701673
  45.3368553  37.5583833  12.6661673  46.8068553  39.7353833   2.6681673
  47.2968553  40.4523833   2.5911673  46.0168553  39.9963833   2.4051673
  46.7628553  39.8793833   2.6181673  36.5178553  45.4083833  16.3201673
  36.4808553  45.9093833  15.6061673  36.8488553  44.6563833  16.0251673
  36.5608553  45.3703833  16.1711673  48.1208553  47.6133833  14.5781673
  48.6048553  48.3313833  14.6761673  48.5148553  47.1863833  13.9271673
  48.2508553  47.6563833  14.4961673  42.4168553  50.4583833  15.7551673
  42.7708553  50.2803833  16.5321673  41.9808553  49.7293833  15.5561673
  42.4048553  50.3243833  15.8411673  43.3888553  41.2053833   8.3931673
  43.8688553  41.9043833   8.6011673  43.7618553  40.5583833   8.8441673
  43.5148553  41.2133833   8.4901673  50.5498553  48.2443833   4.6481673
  50.9058553  47.8943833   5.3631673  50.5418553  47.5833833   4.0781673
  50.6018553  48.0943833   4.6691673  46.5948553  51.3103833   8.4921673
  45.9918553  51.0143833   7.9351673  47.1398553  51.7623833   7.9831673
  46.5858553  51.3333833   8.3341673  46.6078553  48.1613833   7.8921673
  45.8108553  48.3853833   8.1661673  46.8658553  47.5673833   8.4771673
  46.5278553  48.1063833   8.0191673  40.4998553  52.9733833   2.3401673
  40.3528553  52.1973833   2.7111673  41.1888553  52.8263833   1.8251673
  40.5798553  52.8363833   2.3191673  49.8678553  46.1593833  12.7381673
  49.9228553  46.2843833  11.8761673  50.6208553  46.4793833  13.0401673
  49.9868553  46.2243833  12.6551673  46.0588553  51.5083833  17.0151673
  46.2228553  51.7913833  17.8241673  46.3218553  52.1693833  16.5101673
  46.1218553  51.6483833  17.0601673  50.8998553  36.4573833  15.7251673
  50.2628553  36.0573833  15.2831673  50.9258553  36.0263833  16.4831673
  50.8098553  36.3353833  15.7711673  45.5988553  45.9653833  12.3381673
  45.4438553  46.5753833  12.9421673  46.1328553  45.4073833  12.7441673
  45.6548553  45.9733833  12.4871673  34.2898553  36.6843833   2.5391673
  34.4188553  35.9763833   2.0471673  33.9228553  36.3663833   3.2641673
  34.2548553  36.5323833   2.5741673  43.9828553  44.3653833   2.9961673
  44.0418553  45.0153833   3.5751673  43.7938553  43.6693833   3.4871673
  43.9638553  44.3583833   3.1541673  49.2088553  48.6943833   8.8651673
  48.7298553  48.9923833   8.1991673  48.8528553  47.9183833   9.0431673
  49.0858553  48.6233833   8.7931673  43.2058553  46.4123833   7.4271673
  42.3588553  46.2183833   7.5081673  43.5298553  46.2473833   8.2201673
  43.1278553  46.3593833   7.5561673  37.0538553  46.1053833   9.7431673
  37.7758553  46.5933833   9.7061673  36.7838553  46.0753833   8.9141673
  37.1208553  46.1733833   9.6151673  40.2838553  41.2763833   6.4781673
  41.1298553  41.0863833   6.5761673  39.9138553  40.4993833   6.3401673
  40.3538553  41.1333833   6.4721673  35.1048553  42.6143833   3.1331673
  35.5938553  42.3223833   3.7941673  35.2338553  42.0213833   2.5061673
  35.1958553  42.4833833   3.1381673  50.1398553  45.6363833   9.9841673
  50.1328553  44.8603833  10.3821673  49.2988553  45.8703833   9.9771673
  50.0148553  45.5563833  10.0421673  36.4488553  47.1573833  14.0211673
  36.0278553  46.6393833  13.4601673  36.0968553  47.9433833  13.8781673
  36.3348553  47.1973833  13.9171673  51.3958553  45.7073833   7.4211673
  51.1098553  46.1083833   8.1411673  52.2558553  45.6453833   7.5481673
  51.4808553  45.7573833   7.5461673  49.0578553  39.6313833  15.9611673
  48.5328553  40.0903833  16.4851673  48.6968553  38.8363833  15.9551673
  48.9268553  39.5813833  16.0371673  34.5648553  38.4793833   7.8651673
  34.6088553  38.8233833   7.0641673  35.3198553  38.7163833   8.2321673
  34.6828553  38.5653833   7.8011673  52.5268553  51.3403833   7.9501673
  52.8168553  51.5973833   7.1691673  53.2218553  51.4363833   8.4691673
  52.6728553  51.3923833   7.9111673  47.5498553  43.2003833  16.0371673
  47.6228553  43.3043833  16.9001673  46.9158553  43.7583833  15.8161673
  47.4668553  43.2983833  16.1321673  49.8178553  43.5193833  14.4021673
  50.1368553  44.3053833  14.6051673  49.4478553  43.2493833  15.1451673
  49.8108553  43.5953833  14.5421673  49.6138553  41.7773833   5.5911673
  48.8688553  41.4543833   5.9091673  49.6158553  42.6033833   5.8711673
  49.5038553  41.8513833   5.6791673  52.5158553  44.0613833  17.1371673
  52.4638553  43.7203833  16.3361673  53.2528553  44.5283833  17.1151673
  52.6168553  44.0803833  17.0151673  52.0538553  47.7373833  13.3431673
  52.6818553  47.1883833  13.0871673  51.9928553  48.3023833  12.6811673
  52.1378553  47.7403833  13.2071673  41.1878553  48.9683833  10.6391673
  40.8898553  49.5603833  11.2061673  41.2428553  49.4103833   9.8901673
  41.1518553  49.1213833  10.6121673  39.1668553  47.9183833  14.0371673
  38.3608553  47.6283833  14.2041673  39.0778553  48.7863833  14.0431673
  39.0348553  48.0033833  14.0621673  48.5258553  38.1073833  13.0521673
  49.2698553  38.5593833  12.9891673  47.9598553  38.5773833  12.5831673
  48.5528553  38.2443833  12.9741673  43.7038553  45.3913833  10.1301673
  44.1798553  45.7653833  10.7581673  42.8808553  45.5253833  10.3891673
  43.6528553  45.4663833  10.2611673  40.4138553  40.9943833  12.8711673
  40.5748553  40.2503833  13.2981673  40.3688553  40.7453833  12.0361673
  40.4308553  40.8473833  12.8111673  42.9678553  52.7843833   5.3581673
  43.5138553  53.4633833   5.4121673  42.6178553  52.8663833   4.5631673
  42.9968553  52.8973833   5.2481673  49.8108553  36.0873833  10.7221673
  49.5308553  36.9123833  10.6781673  50.5268553  36.1403833  11.2181673
  49.8758553  36.2173833  10.7891673  42.1658553  36.8023833  12.7511673
  42.8708553  37.1223833  12.3491673  42.4068553  35.9953833  12.9781673
  42.3048553  36.7303833  12.7251673  41.1508553  51.0123833   8.7471673
  40.5268553  51.5943833   8.5651673  41.3988553  50.7263833   7.9611673
  41.0948553  51.0563833   8.6041673  45.4598553  47.6463833  15.7361673
  46.2168553  47.9323833  15.4101673  44.9128553  47.6983833  15.0581673
  45.4908553  47.6963833  15.5871673  49.3688553  50.1963833  14.2401673
  49.7148553  50.4663833  14.9941673  49.6628553  50.7783833  13.6601673
  49.4638553  50.3223833  14.2661673  38.6748553  41.8553833   8.8121673
  39.1148553  41.7523833   8.0661673  39.2198553  41.5423833   9.4171673
  38.8198553  41.7943833   8.7911673  46.6908553  40.9573833  14.4041673
  46.0428553  41.4273833  14.7521673  47.2558553  40.8683833  15.0631673
  46.6788553  41.0133833  14.5531673  46.3788553  42.4943833  10.7021673
  46.6808553  42.9143833  11.4051673  46.4148553  41.6543833  10.9341673
  46.4288553  42.4323833  10.8401673  43.8038553  52.6613833  14.6271673
  44.2818553  52.0613833  14.2111673  43.4528553  52.2183833  15.2921673
  43.8228553  52.5073833  14.6641673  48.9268553  41.9413833   2.9541673
  49.1338553  41.7403833   3.7781673  49.6828553  42.2093833   2.6121673
  49.0688553  41.9513833   3.0251673  42.2218553  36.8403833   8.8591673
  41.3958553  36.6913833   9.0961673  42.1818553  36.8753833   7.9881673
  42.0938553  36.8233833   8.7651673  49.9488553  38.0243833   4.4281673
  49.2348553  37.5533833   4.5991673  49.7868553  38.3653833   3.6421673
  49.8198553  38.0053833   4.3371673  50.3918553  45.9683833   2.8081673
  50.8678553  45.2393833   2.7601673  49.5708553  45.6823833   2.7321673
  50.3408553  45.8183833   2.7891673  43.8628553  47.8803833  13.6471673
  43.0678553  47.8163833  13.9981673  43.9338553  48.7273833  13.4521673
  43.7558553  47.9953833  13.6701673  34.7868553  37.2383833  14.8941673
  34.6468553  38.0333833  14.5631673  34.0008553  36.9953833  15.1831673
  34.6498553  37.3203833  14.8881673  39.6928553  54.0873833   8.9641673
  39.7038553  54.1463833   9.8341673  39.2678553  53.3403833   8.8141673
  39.6318553  53.9853833   9.0701673  46.6078553  47.1353833   5.1631673
  46.6838553  47.4763833   5.9621673  46.7768553  46.2883833   5.2841673
  46.6438553  47.0603833   5.2991673  44.1298553  46.4093833   4.7281673
  43.8318553  46.0943833   5.4851673  44.8248553  46.8823833   4.9631673
  44.1888553  46.4323833   4.8751673  44.3518553  50.5273833  12.7551673
  45.0388553  50.4133833  13.2801673  44.4858553  51.3183833  12.4111673
  44.4728553  50.6273833  12.7821673  52.5278553  43.1363833  14.5661673
  51.6728553  43.0143833  14.6921673  52.6808553  42.7413833  13.8031673
  52.4238553  43.0593833  14.4721673  47.0408553  43.8013833  13.1421673
  46.7858553  43.0823833  13.5641673  47.8618553  43.9173833  13.4121673
  47.1248553  43.7123833  13.2441673  36.4568553  53.5853833  14.4061673
  35.8028553  53.0163833  14.5041673  36.0818553  54.3583833  14.5571673
  36.3048553  53.6153833  14.4431673  44.9748553  44.9913833  16.3291673
  45.2978553  45.6773833  15.8971673  44.2708553  45.3143833  16.7311673
  44.9178553  45.1403833  16.3241673  48.0588553  53.3653833   7.2581673
  47.6078553  54.0083833   7.6371673  48.7668553  53.2863833   7.7631673
  48.0968553  53.4483833   7.3891673  44.7598553  48.4553833  10.1881673
  44.0658553  48.8573833  10.5311673  45.4368553  48.8883833  10.5271673
  44.7568553  48.5783833  10.2891673  50.1368553  51.0483833  16.7681673
  50.9128553  50.6583833  16.8511673  49.6678553  50.7123833  17.4231673
  50.1818553  50.9413833  16.8771673  37.8278553  41.9933833  12.5351673
  38.2028553  42.6123833  12.0481673  38.5018553  41.5193833  12.8201673
  37.9828553  42.0153833  12.5051673  35.6028553  40.4413833  11.8101673
  35.6798553  40.2723833  10.9571673  36.3488553  40.8473833  12.0071673
  35.7238553  40.4763833  11.7131673  38.1568553  37.8513833  14.2211673
  38.0758553  37.0073833  14.4271673  37.8428553  37.8953833  13.4081673
  38.0988553  37.7333833  14.1311673  45.0818553  50.0463833   3.3571673
  44.8768553  50.8793833   3.1981673  44.3068553  49.6643833   3.4791673
  44.9368553  50.1133833   3.3521673  50.2638553  43.2273833  11.6061673
  50.2618553  42.3643833  11.7301673  50.3308553  43.5513833  12.4131673
  50.2738553  43.1473833  11.7431673  34.9998553  45.6673833  12.0341673
  35.3198553  45.8863833  11.2531673  34.8998553  44.8023833  11.9791673
  35.0318553  45.5723833  11.9111673  46.1428553  38.0273833  15.3881673
  46.2348553  38.7393833  15.8821673  45.5058553  37.5823833  15.7851673
  46.0618553  38.0663833  15.5201673  45.1368553  38.2173833   6.2421673
  44.4368553  38.7353833   6.1861673  45.1748553  37.8373833   5.4581673
  45.0388553  38.2383833   6.1181673  48.7348553  38.7333833   9.0421673
  49.5898553  38.8323833   9.1871673  48.3658553  39.2863833   9.6071673
  48.8068553  38.8303833   9.1471673  39.7628553  44.9593833  13.4191673
  39.3668553  45.7333833  13.4941673  39.3568553  44.5863833  12.7431673
  39.6448553  45.0183833  13.3301673  49.0388553  44.0133833   7.5331673
  49.7048553  44.5543833   7.6931673  48.6938553  44.3243833   6.7941673
  49.0858553  44.1393833   7.4481673  49.3518553  52.0793833   3.3401673
  49.1778553  51.4253833   3.8901673  50.0648553  51.8083833   2.9171673
  49.4318553  51.9423833   3.3591673  40.1918553  37.9363833  10.8691673
  39.3278553  38.0203833  10.9491673  40.4118553  37.4223833  11.5381673
  40.0968553  37.8733833  10.9801673  52.2098553  36.5713833  12.1981673
  52.1578553  36.5273833  13.0681673  52.8968553  36.0683833  12.0081673
  52.3038553  36.4913833  12.2981673  44.2948553  38.6843833   9.2431673
  43.5578553  38.2303833   9.3561673  44.8658553  38.2823833   9.7661673
  44.2698553  38.5573833   9.3371673  47.0268553  49.5323833  11.0311673
  47.2328553  49.8333833  11.8231673  46.9658553  50.2543833  10.5461673
  47.0478553  49.6833833  11.0761673  46.5608553  53.7463833  15.2771673
  45.8078553  53.7283833  14.8361673  46.7288553  54.5983833  15.3611673
  46.4748553  53.8693833  15.2241673  41.7978553  43.0133833  14.4471673
  41.4758553  42.4373833  13.8771673  41.4388553  43.7683833  14.2011673
  41.6978553  43.0393833  14.3271673  51.8388553  48.1713833  10.4891673
  51.8068553  47.3093833  10.3541673  51.1458553  48.4733833  10.0551673
  51.7318553  48.0883833  10.4051673  40.2328553  53.3693833  14.6951673
  40.2738553  53.4953833  15.5581673  40.8838553  52.8093833  14.5391673
  40.3348553  53.3053833  14.8001673  49.9438553  51.4313833   9.2861673
  50.4708553  51.3483833   8.5951673  49.5528553  50.6533833   9.3401673
  49.9638553  51.3043833   9.1921673  37.4118553  38.0193833  11.5171673
  37.0688553  37.2523833  11.2831673  36.7168553  38.5433833  11.5811673
  37.2588553  37.9833833  11.4921673  46.4578553  36.8753833   8.4941673
  47.1278553  37.4193833   8.6211673  45.9548553  37.2993833   7.9211673
  46.4828553  37.0183833   8.4281673  37.8258553  51.7523833  16.0551673
  38.4208553  52.1833833  16.5271673  37.4618553  52.3763833  15.5661673
  37.8598553  51.9083833  16.0521673  45.8168553  42.6833833   5.9871673
  46.3678553  42.0763833   6.2871673  45.3918553  42.9463833   6.7021673
  45.8358553  42.6323833   6.1361673  36.0648553  41.3333833   5.4731673
  35.6968553  41.6353833   6.2041673  36.5988553  40.7043833   5.7571673
  36.0888553  41.2853833   5.6231673  35.7528553  49.7413833  12.9841673
  35.1788553  50.1573833  13.4931673  36.4858553  50.2063833  13.0791673
  35.7768553  49.8713833  13.0731673  47.7868553  44.5143833   2.5491673
  47.8548553  43.6643833   2.7301673  46.9638553  44.6003833   2.2711673
  47.6748553  44.4013833   2.5351673  51.0608553  45.8873833  15.7001673
  51.6948553  45.7173833  16.2741673  51.4778553  46.2903833  15.0481673
  51.2158553  45.9223833  15.6891673  51.6858553  40.4513833  16.4381673
  51.4898553  41.0953833  16.9931673  50.9638553  39.9613833  16.4301673
  51.5508553  40.4743833  16.5191673  51.5848553  41.3923833   9.4091673
  50.7518553  41.6423833   9.3371673  51.5288553  40.5523833   9.6381673
  51.4538553  41.3053833   9.4321673  40.8448553  38.3803833  14.6031673
  41.0788553  37.8043833  13.9901673  40.0028553  38.1993833  14.7441673
  40.7548553  38.2683833  14.5331673  48.4718553  45.9983833  17.0551673
  49.3428553  45.9623833  17.0191673  48.2528553  46.4183833  16.3231673
  48.5688553  46.0543833  16.9421673  38.2258553  51.8233833   8.2361673
  38.1468553  51.0133833   7.9201673  37.7818553  52.3103833   7.6641673
  38.1488553  51.7753833   8.1051673  35.7978553  54.0673833  11.8171673
  36.2908553  54.0113833  12.5351673  35.9858553  53.3343833  11.3821673
  35.8988553  53.9503833  11.8591673  45.2358553  18.1052753  79.9891313
  44.9908553  18.5932753  79.3091313  46.0988553  18.0322753  79.8891313
  45.3268553  18.1662753  79.8741313  45.0448553  25.0212753  84.6601313
  44.5208553  25.6172753  85.0231313  45.4418553  24.6532753  85.3441313
  45.0258553  25.0552753  84.8151313  34.9138553  29.1612753  80.1161313
  34.4728553  29.2792753  80.8591313  34.6308553  28.3862753  79.8311313
  34.8068553  29.0642753  80.1841313  51.1888553  32.4622753  77.6311313
  51.8898553  31.9432753  77.6271313  50.6018553  32.0172753  77.1621313
  51.2058553  32.3192753  77.5611313  34.6568553  22.9532753  76.6231313
  33.8788553  23.1152753  76.2631313  34.6958553  22.0822753  76.6451313
  34.5478553  22.8482753  76.5731313  37.7958553  28.2162753  75.2951313
  37.4038553  27.8452753  74.6091313  37.7158553  27.6182753  75.9241313
  37.7258553  28.0732753  75.2861313  47.7158553  26.0882753  81.3361313
  47.7958553  26.0922753  80.4671313  47.1318553  25.4562753  81.4851313
  47.6408553  25.9952753  81.2301313  37.4228553  29.8572753  79.1951313
  38.0308553  29.6872753  79.7981313  36.6718553  29.7172753  79.6161313
  37.4018553  29.8112753  79.3461313  41.7048553  19.1922753  79.1441313
  41.6348553  19.8692753  78.5981313  42.4458553  18.8042753  78.8951313
  41.8038553  19.2352753  79.0261313  36.3138553  32.9482753  75.2721313
  36.7808553  33.0322753  74.5401313  36.7688553  32.3702753  75.7411313
  36.4498553  32.8752753  75.2331313  34.8538553  31.8962753  86.3711313
  34.9828553  31.6162753  87.1871313  34.2438553  31.3552753  86.0621313
  34.7828553  31.7752753  86.4461313  36.2998553  26.4172753  80.5731313
  35.8378553  26.0252753  79.9461313  36.9998553  25.9042753  80.6651313
  36.3348553  26.2842753  80.4941313  40.8078553  22.0272753  85.9201313
  41.4858553  22.0452753  85.3711313  40.7628553  21.1912753  86.1651313
  40.9008553  21.9062753  85.8751313  41.4098553  32.6132753  88.7011313
  41.5478553  33.3732753  88.2941313  42.2008553  32.2482753  88.7281313
  41.5468553  32.6722753  88.6451313  38.3008553  24.5172753  80.5961313
  39.1178553  24.3302753  80.8391313  37.8238553  23.9032753  80.9921313
  38.3508553  24.3992753  80.6911313  42.5048553  30.4982753  83.2061313
  42.8528553  29.6992753  83.2361313  43.1698553  31.0022753  82.9511313
  42.6548553  30.4542753  83.1731313  42.5618553  29.9472753  79.4171313
  42.8928553  29.3032753  79.9031313  42.8018553  29.7362753  78.6061313
  42.6458553  29.8212753  79.3691313  38.8978553  19.6112753  79.8621313
  38.6018553  20.1122753  79.2121313  39.7648553  19.6892753  79.8051313
  38.9818553  19.6972753  79.7581313  41.8768553  18.7532753  82.0851313
  41.9498553  19.6132753  82.2141313  41.8388553  18.6782753  81.2171313
  41.8818553  18.8692753  81.9761313  34.7558553  24.1782753  83.5861313
  34.4998553  25.0092753  83.5111313  34.0918553  23.7952753  84.0031313
  34.6198553  24.2442753  83.6371313  34.6658553  33.8882753  81.4861313
  34.0738553  34.4462753  81.1731313  35.0918553  33.6192753  80.7741313
  34.6418553  33.9302753  81.3351313  40.5058553  31.7322753  78.9661313
  39.9268553  31.4572753  79.5581313  41.1298553  31.1232753  78.9911313
  40.5128553  31.6022753  79.0571313  46.6488553  34.0202753  76.4881313
  47.3758553  34.4922753  76.5901313  46.8778553  33.2262753  76.7681313
  46.7908553  33.9732753  76.5451313  44.8168553  34.4122753  78.4781313
  45.0308553  34.9392753  79.1401313  45.5838553  34.2382753  78.0991313
  44.9618553  34.4642753  78.5201313  37.7848553  18.9952753  84.0771313
  37.2638553  18.3672753  83.7691313  38.3758553  18.5582753  84.5481313
  37.7958553  18.8372753  84.1011313  36.2108553  32.5582753  79.4171313
  36.8668553  31.9832753  79.4321313  36.5998553  33.3072753  79.1961313
  36.3658553  32.5832753  79.3871313  51.9438553  21.6522753  80.6791313
  51.5978553  22.3302753  81.1051313  51.3078553  21.0542753  80.6951313
  51.7988553  21.6642753  80.7441313  47.2558553  34.4222753  86.7831313
  47.9998553  34.8782753  86.7731313  47.1348553  34.2082753  85.9461313
  47.3478553  34.4582753  86.6581313  37.0288553  31.0452753  82.9171313
  37.4518553  30.6892753  82.2431313  37.3528553  30.6232753  83.6091313
  37.1388553  30.9302753  82.9201313  40.2598553  33.8972753  82.2131313
  41.1038553  34.0012753  82.0181313  39.9628553  34.7152753  82.2811313
  40.3408553  34.0332753  82.1941313  44.0668553  23.2942753  80.3001313
  44.3538553  23.0622753  79.5101313  44.7988553  23.3732753  80.7691313
  44.2168553  23.2712753  80.2531313  44.7888553  23.6332753  75.4211313
  45.0698553  24.4212753  75.6701313  44.0128553  23.7982753  75.0581313
  44.7158553  23.7742753  75.4041313  48.8298553  35.6072753  76.8881313
  49.4948553  35.4592753  76.3431313  49.1898553  35.5242753  77.6781313
  48.9818553  35.5732753  76.9241313  39.2578553  35.1162753  87.9531313
  39.5498553  35.0492753  88.7731313  38.6318553  34.5112753  87.9081313
  39.2088553  35.0172753  88.0681313  51.6188553  19.9752753  86.0481313
  52.3758553  20.0472753  85.6201313  51.6818553  19.2022753  86.4471313
  51.7398553  19.8722753  86.0431313  43.6478553  31.8042753  75.2371313
  43.4668553  32.3492753  75.8941313  44.4138553  32.0942753  74.9361313
  43.7338553  31.9282753  75.2901313  47.1548553  19.7002753  76.2911313
  47.6948553  19.0182753  76.3671313  47.2168553  20.0982753  77.0651313
  47.2438553  19.6582753  76.4171313  35.1088553  20.8682753  78.8601313
  34.9948553  20.0042753  78.8911313  34.6338553  21.1622753  79.5301313
  35.0218553  20.7842753  78.9631313  37.2508553  33.2782753  87.0751313
  36.5528553  32.7702753  87.2011313  37.5108553  33.0732753  86.2671313
  37.1858553  33.1732753  86.9741313  44.4128553  22.0762753  77.6051313
  43.9048553  21.4142753  77.3511313  44.4648553  22.5802753  76.8951313
  44.3458553  22.0532753  77.4631313  44.9618553  34.7712753  87.9851313
  45.7298553  34.6912753  87.5791313  44.3788553  34.6502753  87.3471313
  44.9888553  34.7412753  87.8311313  44.4128553  19.0172753  77.4961313
  43.9578553  18.6152753  76.8701313  45.1858553  19.1722753  77.1211313
  44.4598553  18.9812753  77.3481313  51.2388553  35.3742753  80.8861313
  50.7838553  36.0912753  81.0871313  50.6248553  34.8032753  80.6441313
  51.0808553  35.3962753  80.8801313  43.0108553  21.3842753  82.0181313
  43.0848553  21.9522753  81.3601313  43.1318553  21.8762753  82.7281313
  43.0388553  21.5412753  82.0261313  48.2358553  31.2192753  80.4301313
  48.9368553  30.7372753  80.6191313  47.5758553  30.6502753  80.4751313
  48.2418553  31.0642753  80.4641313  37.6188553  17.2072753  80.3661313
  38.1548553  17.8952753  80.3561313  37.6218553  16.9332753  79.5381313
  37.6978553  17.2682753  80.2421313  40.5748553  27.6402753  84.3911313
  40.7468553  27.4302753  85.2201313  39.9198553  27.1062753  84.1751313
  40.5038553  27.5302753  84.4821313  46.8028553  21.5542753  87.9061313
  46.7078553  21.8732753  88.7121313  46.2098553  20.9152753  87.8681313
  46.7008553  21.5062753  88.0201313  41.3248553  27.5782753  86.9811313
  41.3778553  28.4252753  87.1831313  41.0398553  27.2082753  87.7181313
  41.2908553  27.6482753  87.1191313  47.5018553  28.2732753  86.1111313
  46.9878553  27.8612753  86.6821313  47.3758553  29.1172753  86.2921313
  47.4078553  28.3372753  86.2221313  48.0588553  17.4982753  80.7421313
  48.1078553  17.1802753  81.5531313  48.3818553  16.8542753  80.2491313
  48.1138553  17.3562753  80.7891313  50.5228553  21.7342753  89.0501313
  51.2948553  21.5092753  89.3871313  50.0478553  21.9512753  89.7501313
  50.5668553  21.7332753  89.2031313  38.0668553  21.0172753  82.0201313
  38.3388553  20.5872753  81.3121313  37.8908553  20.3812753  82.5911313
  38.0808553  20.8602753  82.0001313  50.7548553  28.7122753  76.2381313
  50.8738553  28.4252753  77.0531313  51.5618553  28.7332753  75.9081313
  50.8908553  28.6732753  76.3101313  37.8908553  28.4442753  81.5691313
  38.7418553  28.3642753  81.3961313  37.5338553  27.7622753  81.1571313
  37.9638553  28.3312753  81.4821313  36.6578553  35.1692753  82.8061313
  35.9848553  34.6712753  82.5611313  37.0608553  35.3542753  82.0551313
  36.6178553  35.1232753  82.6591313  36.2078553  22.1192753  85.1021313
  37.0508553  22.3392753  85.0591313  35.8188553  22.6922753  84.5711313
  36.2748553  22.2362753  85.0171313  40.2588553  28.4512753  79.8041313
  40.9718553  28.9462753  79.8941313  40.4808553  27.8842753  79.1781313
  40.3968553  28.4402753  79.7251313  52.8368553  20.1102753  75.2761313
  52.1748553  19.5422753  75.2991313  52.6438553  20.6222753  74.5961313
  52.7108553  20.1022753  75.1791313  34.4148553  30.0942753  83.1241313
  33.7478553  30.5822753  83.4001313  35.0948553  30.6392753  83.1531313
  34.4168553  30.2462753  83.1691313  53.1598553  24.4882753  87.8321313
  53.3748553  23.6882753  87.5561313  52.3098553  24.5482753  87.6431313
  53.0658553  24.3792753  87.7631313  34.4808553  26.7782753  78.2271313
  34.2958553  25.9392753  78.3791313  35.1398553  26.7422753  77.6571313
  34.5508553  26.6492753  78.1651313  50.8388553  19.6682753  77.5551313
  51.5848553  19.2612753  77.7541313  51.1018553  20.3832753  77.1301313
  50.9878553  19.7142753  77.5221313  44.7818553  32.1542753  82.1311313
  44.2588553  32.7882753  81.8381313  45.0918553  31.7902753  81.4021313
  44.7498553  32.1942753  81.9801313  34.6528553  30.9422753  77.8021313
  35.2048553  31.5112753  78.1661313  34.4208553  30.4272753  78.4671313
  34.6998553  30.9502753  77.9541313  38.8568553  29.9422753  84.8911313
  39.3238553  30.2312753  85.5691313  39.4288553  29.4642753  84.4371313
  39.0108553  29.9142753  84.9241313  47.2928553  21.9562753  82.6281313
  47.6368553  22.1082753  83.4151313  46.8398553  21.2182753  82.7411313
  47.2768553  21.8692753  82.7611313  34.4828553  29.3912753  75.4301313
  35.2388553  28.9592753  75.4881313  34.4978553  29.9232753  76.1211313
  34.5968553  29.4062753  75.5411313  35.4228553  27.6122753  83.4351313
  35.8538553  27.4832753  82.6881313  35.2178553  28.4602753  83.4091313
  35.4558553  27.7182753  83.3211313  41.7688553  21.1762753  77.0851313
  41.7668553  21.0592753  76.2201313  41.5878553  22.0242753  77.1771313
  41.7418553  21.2842753  76.9711313  50.8228553  33.6032753  88.5821313
  50.1518553  34.1172753  88.8001313  50.8858553  33.7032753  87.7181313
  50.7328553  33.6942753  88.4871313  39.5068553  31.1282753  81.7171313
  39.6328553  31.9712753  81.9041313  40.1748553  30.7292753  82.1131313
  39.6248553  31.1942753  81.8031313  38.1218553  24.0082753  76.7191313
  37.9938553  23.5602753  77.4571313  37.5398553  23.6662753  76.1671313
  38.0168553  23.8912753  76.7471313  38.2888553  25.8382753  83.3181313
  37.5078553  25.7792753  82.9351313  38.3608553  25.0862753  83.7551313
  38.1838553  25.7192753  83.3261313  38.7188553  25.5752753  86.7861313
  38.7438553  24.9002753  86.2351313  38.0728553  26.0712753  86.4741313
  38.6278553  25.5482753  86.6591313  48.6138553  23.2882753  85.1821313
  47.9518553  23.6162753  85.6451313  48.8008553  23.9222753  84.6131313
  48.5438553  23.4302753  85.1661313  42.8188553  34.3522753  86.1781313
  42.5418553  33.7112753  85.6551313  42.6108553  35.0782753  85.7401313
  42.7478553  34.3652753  86.0361313  45.2588553  19.1942753  88.6111313
  45.4078553  18.3692753  88.3681313  45.6378553  19.2492753  89.3951313
  45.3368553  19.0802753  88.6911313  46.8068553  21.2572753  78.6931313
  47.2968553  21.9742753  78.6161313  46.0168553  21.5182753  78.4301313
  46.7628553  21.4012753  78.6431313  43.3888553  22.7272753  84.4181313
  43.8688553  23.4262753  84.6261313  43.7618553  22.0802753  84.8691313
  43.5148553  22.7352753  84.5151313  45.5778553  25.8962753  76.6921313
  45.5698553  26.6182753  76.2021313  44.9388553  26.0312753  77.2691313
  45.4828553  26.0232753  76.7051313  50.5498553  29.7662753  80.6731313
  50.9058553  29.4162753  81.3881313  50.5418553  29.1052753  80.1031313
  50.6018553  29.6162753  80.6941313  46.5948553  32.8322753  84.5171313
  45.9918553  32.5362753  83.9601313  47.1398553  33.2842753  84.0081313
  46.5858553  32.8552753  84.3591313  46.6078553  29.6832753  83.9171313
  45.8108553  29.9072753  84.1911313  46.8658553  29.0892753  84.5021313
  46.5278553  29.6282753  84.0441313  40.4998553  34.4952753  78.3651313
  40.3528553  33.7192753  78.7361313  41.1888553  34.3482753  77.8501313
  40.5798553  34.3582753  78.3441313  40.1708553  18.2382753  76.3531313
  40.2678553  18.1312753  77.2141313  39.4628553  18.7442753  76.2881313
  40.0808553  18.2972753  76.4711313  42.7918553  34.0112753  76.7671313
  43.4138553  34.1742753  77.3571313  42.8278553  34.7022753  76.2351313
  42.8888553  34.1372753  76.7761313  49.8678553  27.6812753  88.7631313
  49.9228553  27.8062753  87.9011313  50.6208553  28.0012753  89.0651313
  49.9868553  27.7462753  88.6801313  37.2928553  26.5452753  77.5961313
  37.6168553  25.7662753  77.3741313  37.9388553  26.9132753  78.0511313
  37.4358553  26.4842753  77.6301313  45.5988553  27.4872753  88.3631313
  45.4438553  28.0972753  88.9671313  46.1328553  26.9292753  88.7691313
  45.6548553  27.4952753  88.5121313  34.2898553  18.2062753  78.5641313
  34.4188553  17.4982753  78.0721313  33.9228553  17.8882753  79.2891313
  34.2548553  18.0542753  78.5991313  43.9828553  25.8872753  79.0211313
  44.0418553  26.5372753  79.6001313  43.7938553  25.1912753  79.5121313
  43.9638553  25.8802753  79.1791313  49.2088553  30.2162753  84.8901313
  48.7298553  30.5142753  84.2241313  48.8528553  29.4402753  85.0681313
  49.0858553  30.1452753  84.8181313  38.4788553  20.4042753  75.5331313
  37.9678553  20.4572753  74.8271313  39.2628553  20.6442753  75.2371313
  38.5188553  20.4472753  75.3851313  43.2058553  27.9342753  83.4521313
  42.3588553  27.7402753  83.5331313  43.5298553  27.7692753  84.2451313
  43.1278553  27.8812753  83.5811313  39.9578553  34.6642753  74.3381313
  40.3968553  33.9672753  74.6261313  40.1648553  35.2882753  74.9111313
  40.0538553  34.6532753  74.4651313  37.0538553  27.6272753  85.7681313
  37.7758553  28.1152753  85.7311313  36.7838553  27.5972753  84.9391313
  37.1208553  27.6952753  85.6401313  40.2838553  22.7982753  82.5031313
  41.1298553  22.6082753  82.6011313  39.9138553  22.0212753  82.3651313
  40.3538553  22.6552753  82.4971313  52.9008553  34.3822753  76.8301313
  53.5948553  33.9152753  76.5821313  52.3618553  33.7842753  77.1671313
  52.9238553  34.2242753  76.8431313  35.1048553  24.1362753  79.1581313
  35.5938553  23.8442753  79.8191313  35.2338553  23.5432753  78.5311313
  35.1958553  24.0052753  79.1631313  50.1398553  27.1582753  86.0091313
  50.1328553  26.3822753  86.4071313  49.2988553  27.3922753  86.0021313
  50.0148553  27.0782753  86.0671313  39.6298553  25.5702753  74.6441313
  39.0198553  25.1652753  75.1181313  39.2438553  25.6882753  73.8711313
  39.4828553  25.5272753  74.6001313  36.4488553  28.6792753  90.0461313
  36.0278553  28.1612753  89.4851313  36.0968553  29.4652753  89.9031313
  36.3348553  28.7192753  89.9421313  51.3958553  27.2292753  83.4461313
  51.1098553  27.6302753  84.1661313  52.2558553  27.1672753  83.5731313
  51.4808553  27.2792753  83.5711313  41.0848553  24.0312753  77.3541313
  41.3568553  24.8572753  77.4211313  40.2218553  24.1062753  77.2581313
  40.9978553  24.1642753  77.3491313  34.5648553  20.0012753  83.8901313
  34.6088553  20.3452753  83.0891313  35.3198553  20.2382753  84.2571313
  34.6828553  20.0872753  83.8261313  52.5268553  32.8622753  83.9751313
  52.8168553  33.1192753  83.1941313  53.2218553  32.9582753  84.4941313
  52.6728553  32.9142753  83.9361313  49.1318553  31.4652753  75.9571313
  49.4658553  30.6592753  75.9921313  48.3768553  31.3932753  76.3871313
  49.0698553  31.3352753  76.0261313  49.6138553  23.2992753  81.6161313
  48.8688553  22.9762753  81.9341313  49.6158553  24.1252753  81.8961313
  49.5038553  23.3732753  81.7041313  52.0538553  29.2592753  89.3681313
  52.6818553  28.7102753  89.1121313  51.9928553  29.8242753  88.7061313
  52.1378553  29.2622753  89.2321313  46.5058553  29.3402753  75.3601313
  47.1898553  28.8262753  75.1911313  46.0888553  29.3862753  74.5951313
  46.5448553  29.2712753  75.2221313  41.1878553  30.4902753  86.6641313
  40.8898553  31.0822753  87.2311313  41.2428553  30.9322753  85.9151313
  41.1518553  30.6432753  86.6371313  48.5258553  19.6292753  89.0771313
  49.2698553  20.0812753  89.0141313  47.9598553  20.0992753  88.6081313
  48.5528553  19.7662753  88.9991313  43.7038553  26.9132753  86.1551313
  44.1798553  27.2872753  86.7831313  42.8808553  27.0472753  86.4141313
  43.6528553  26.9882753  86.2861313  40.4138553  22.5162753  88.8961313
  40.5748553  21.7722753  89.3231313  40.3688553  22.2672753  88.0611313
  40.4308553  22.3692753  88.8361313  42.9678553  34.3062753  81.3831313
  43.5138553  34.9852753  81.4371313  42.6178553  34.3882753  80.5881313
  42.9968553  34.4192753  81.2731313  49.8108553  17.6092753  86.7471313
  49.5308553  18.4342753  86.7031313  50.5268553  17.6622753  87.2431313
  49.8758553  17.7392753  86.8141313  42.1658553  18.3242753  88.7761313
  42.8708553  18.6442753  88.3741313  42.4068553  17.5172753  89.0031313
  42.3048553  18.2522753  88.7501313  41.1508553  32.5342753  84.7721313
  40.5268553  33.1162753  84.5901313  41.3988553  32.2482753  83.9861313
  41.0948553  32.5782753  84.6291313  51.2318553  23.8642753  75.6041313
  51.6098553  24.5412753  75.2041313  50.3898553  24.0882753  75.6351313
  51.1628553  23.9972753  75.5491313  42.7448553  27.3102753  74.6871313
  41.9398553  27.1332753  74.4021313  42.7118553  28.1612753  74.8791313
  42.6208553  27.4092753  74.6741313  38.6748553  23.3772753  84.8371313
  39.1148553  23.2742753  84.0911313  39.2198553  23.0642753  85.4421313
  38.8198553  23.3162753  84.8161313  46.3788553  24.0162753  86.7271313
  46.6808553  24.4362753  87.4301313  46.4148553  23.1762753  86.9591313
  46.4288553  23.9542753  86.8651313  48.9268553  23.4632753  78.9791313
  49.1338553  23.2622753  79.8031313  49.6828553  23.7312753  78.6371313
  49.0688553  23.4732753  79.0501313  42.2218553  18.3622753  84.8841313
  41.3958553  18.2132753  85.1211313  42.1818553  18.3972753  84.0131313
  42.0938553  18.3452753  84.7901313  49.9488553  19.5462753  80.4531313
  49.2348553  19.0752753  80.6241313  49.7868553  19.8872753  79.6671313
  49.8198553  19.5272753  80.3621313  50.3918553  27.4902753  78.8331313
  50.8678553  26.7612753  78.7851313  49.5708553  27.2042753  78.7571313
  50.3408553  27.3402753  78.8141313  43.8628553  29.4022753  89.6721313
  43.0678553  29.3382753  90.0231313  43.9338553  30.2492753  89.4771313
  43.7558553  29.5172753  89.6951313  39.6928553  35.6092753  84.9891313
  39.7038553  35.6682753  85.8591313  39.2678553  34.8622753  84.8391313
  39.6318553  35.5072753  85.0951313  37.8508553  21.5042753  78.1441313
  37.9768553  21.1752753  77.3461313  37.0388553  21.2552753  78.3431313
  37.7498553  21.4192753  78.0561313  46.6078553  28.6572753  81.1881313
  46.6838553  28.9982753  81.9871313  46.7768553  27.8102753  81.3091313
  46.6438553  28.5822753  81.3241313  44.1298553  27.9312753  80.7531313
  43.8318553  27.6162753  81.5101313  44.8248553  28.4042753  80.9881313
  44.1888553  27.9542753  80.9001313  44.3518553  32.0492753  88.7801313
  45.0388553  31.9352753  89.3051313  44.4858553  32.8402753  88.4361313
  44.4728553  32.1492753  88.8071313  47.0408553  25.3232753  89.1671313
  46.7858553  24.6042753  89.5891313  47.8618553  25.4392753  89.4371313
  47.1248553  25.2342753  89.2691313  48.0588553  34.8872753  83.2831313
  47.6078553  35.5302753  83.6621313  48.7668553  34.8082753  83.7881313
  48.0968553  34.9702753  83.4141313  44.7598553  29.9772753  86.2131313
  44.0658553  30.3792753  86.5561313  45.4368553  30.4102753  86.5521313
  44.7568553  30.1002753  86.3141313  37.8278553  23.5152753  88.5601313
  38.2028553  24.1342753  88.0731313  38.5018553  23.0412753  88.8451313
  37.9828553  23.5372753  88.5301313  35.6028553  21.9632753  87.8351313
  35.6798553  21.7942753  86.9821313  36.3488553  22.3692753  88.0321313
  35.7238553  21.9982753  87.7381313  51.1618553  24.6032753  78.2751313
  51.2648553  24.5452753  77.4111313  51.9028553  24.2712753  78.5931313
  51.2868553  24.5462753  78.1941313  45.0818553  31.5682753  79.3821313
  44.8768553  32.4012753  79.2231313  44.3068553  31.1862753  79.5041313
  44.9368553  31.6352753  79.3771313  50.2638553  24.7492753  87.6311313
  50.2618553  23.8862753  87.7551313  50.3308553  25.0732753  88.4381313
  50.2738553  24.6692753  87.7681313  34.9998553  27.1892753  88.0591313
  35.3198553  27.4082753  87.2781313  34.8998553  26.3242753  88.0041313
  35.0318553  27.0942753  87.9361313  36.4558553  23.1252753  74.6771313
  35.7838553  23.1392753  75.2331313  36.5508553  22.2772753  74.4931313
  36.3708553  23.0022753  74.7321313  45.1368553  19.7392753  82.2671313
  44.4368553  20.2572753  82.2111313  45.1748553  19.3592753  81.4831313
  45.0388553  19.7602753  82.1431313  40.4438553  31.8302753  75.7911313
  40.8848553  31.9102753  76.5391313  39.6388553  31.6142753  76.0491313
  40.3898553  31.8102753  75.9401313  48.7348553  20.2552753  85.0671313
  49.5898553  20.3542753  85.2121313  48.3658553  20.8082753  85.6321313
  48.8068553  20.3522753  85.1721313  39.7628553  26.4812753  89.4441313
  39.3668553  27.2552753  89.5191313  39.3568553  26.1082753  88.7681313
  39.6448553  26.5402753  89.3551313  49.0388553  25.5352753  83.5581313
  49.7048553  26.0762753  83.7181313  48.6938553  25.8462753  82.8191313
  49.0858553  25.6612753  83.4731313  49.3518553  33.6012753  79.3651313
  49.1778553  32.9472753  79.9151313  50.0648553  33.3302753  78.9421313
  49.4318553  33.4642753  79.3841313  37.7728553  30.9002753  76.3921313
  37.5288553  30.5932753  77.1721313  37.7398553  30.1972753  75.8761313
  37.7318553  30.7512753  76.4311313  40.5918553  29.1452753  75.1351313
  39.7738553  28.8772753  75.2751313  40.5638553  29.9972753  75.3201313
  40.4668553  29.2322753  75.1831313  40.1918553  19.4582753  86.8941313
  39.3278553  19.5422753  86.9741313  40.4118553  18.9442753  87.5631313
  40.0968553  19.3952753  87.0051313  52.2098553  18.0932753  88.2231313
  52.1578553  18.0492753  89.0931313  52.8968553  17.5902753  88.0331313
  52.3038553  18.0132753  88.3231313  44.2948553  20.2062753  85.2681313
  43.5578553  19.7522753  85.3811313  44.8658553  19.8042753  85.7911313
  44.2698553  20.0792753  85.3621313  47.0268553  31.0542753  87.0561313
  47.2328553  31.3552753  87.8481313  46.9658553  31.7762753  86.5711313
  47.0478553  31.2052753  87.1011313  42.5938553  17.7872753  75.0991313
  42.6718553  18.0342753  74.2661313  41.8508553  18.1642753  75.3571313
  42.4958553  17.8792753  75.0141313  51.8388553  29.6932753  86.5141313
  51.8068553  28.8312753  86.3791313  51.1458553  29.9952753  86.0801313
  51.7318553  29.6102753  86.4301313  49.9438553  32.9532753  85.3111313
  50.4708553  32.8702753  84.6201313  49.5528553  32.1752753  85.3651313
  49.9638553  32.8262753  85.2171313  37.4118553  19.5412753  87.5421313
  37.0688553  18.7742753  87.3081313  36.7168553  20.0652753  87.6061313
  37.2588553  19.5052753  87.5171313  46.4578553  18.3972753  84.5191313
  47.1278553  18.9412753  84.6461313  45.9548553  18.8212753  83.9461313
  46.4828553  18.5402753  84.4531313  45.8168553  24.2052753  82.0121313
  46.3678553  23.5982753  82.3121313  45.3918553  24.4682753  82.7271313
  45.8358553  24.1542753  82.1611313  36.0648553  22.8552753  81.4981313
  35.6968553  23.1572753  82.2291313  36.5988553  22.2262753  81.7821313
  36.0888553  22.8072753  81.6481313  35.7528553  31.2632753  89.0091313
  35.1788553  31.6792753  89.5181313  36.4858553  31.7282753  89.1041313
  35.7768553  31.3932753  89.0981313  47.7868553  26.0362753  78.5741313
  47.8548553  25.1862753  78.7551313  46.9638553  26.1222753  78.2961313
  47.6748553  25.9232753  78.5601313  37.5388553  34.5302753  77.7841313
  37.3938553  34.6862753  76.9381313  38.4048553  34.6092753  77.8621313
  37.6458553  34.5652753  77.6711313  41.7058553  26.9272753  77.5121313
  41.8058553  27.0662753  76.6571313  42.5238553  26.8672753  77.8081313
  41.8408553  26.9382753  77.4291313  50.8658553  34.9912753  74.9921313
  51.5028553  34.8572753  75.5731313  50.5248553  34.1972753  74.8751313
  50.9098553  34.8542753  75.0601313  46.9408553  31.2562753  77.3141313
  46.6898553  31.1282753  78.1401313  46.6238553  30.5612753  76.8931313
  46.8568553  31.1352753  77.3741313  51.5848553  22.9142753  85.4341313
  50.7518553  23.1642753  85.3621313  51.5288553  22.0742753  85.6631313
  51.4538553  22.8272753  85.4571313  38.2258553  33.3452753  84.2611313
  38.1468553  32.5352753  83.9451313  37.7818553  33.8322753  83.6891313
  38.1488553  33.2972753  84.1301313  43.8268553  29.4642753  76.7441313
  44.5438553  29.1172753  76.3881313  43.7928553  30.2642753  76.3961313
  43.9278553  29.5312753  76.6401313  35.7978553  35.5892753  87.8421313
  36.2908553  35.5332753  88.5601313  35.9858553  34.8562753  87.4071313
  35.8988553  35.4722753  87.8841313  45.2358553  18.1052753  60.9828903
  44.9908553  18.5932753  60.3028903  46.0988553  18.0322753  60.8828903
  45.3268553  18.1662753  60.8678903  51.1888553  32.4622753  58.6248903
  51.8898553  31.9432753  58.6208903  50.6018553  32.0172753  58.1558903
  51.2058553  32.3192753  58.5548903  34.6568553  22.9532753  57.6168903
  33.8788553  23.1152753  57.2568903  34.6958553  22.0822753  57.6388903
  34.5478553  22.8482753  57.5668903  47.7158553  26.0882753  62.3298903
  47.7958553  26.0922753  61.4608903  47.1318553  25.4562753  62.4788903
  47.6408553  25.9952753  62.2238903  41.7048553  19.1922753  60.1378903
  41.6348553  19.8692753  59.5918903  42.4458553  18.8042753  59.8888903
  41.8038553  19.2352753  60.0198903  41.4278553  29.4212753  72.4318903
  41.1918553  29.4182753  73.2718903  40.6798553  29.2732753  72.0078903
  41.2818553  29.3982753  72.4928903  44.5298553  24.0782753  71.7498903
  43.6818553  23.9792753  71.5718903  44.5588553  24.8232753  72.2038903
  44.4088553  24.1742753  71.7908903  38.8978553  19.6112753  60.8558903
  38.6018553  20.1122753  60.2058903  39.7648553  19.6892753  60.7988903
  38.9818553  19.6972753  60.7518903  49.0878553  17.0382753  70.8638903
  48.9298553  17.8072753  70.4818903  48.3158553  16.8182753  71.2078903
  48.9498553  17.1192753  70.8588903  41.8768553  18.7532753  63.0788903
  41.9498553  19.6132753  63.2078903  41.8388553  18.6782753  62.2108903
  41.8818553  18.8692753  62.9698903  46.5498553  21.6792753  55.3778903
  46.0998553  22.3602753  55.6848903  46.6638553  21.1752753  56.0808903
  46.5008553  21.7052753  55.5268903  46.6488553  34.0202753  57.4818903
  47.3758553  34.4922753  57.5838903  46.8778553  33.2262753  57.7618903
  46.7908553  33.9732753  57.5388903  44.8168553  34.4122753  59.4718903
  45.0308553  34.9392753  60.1338903  45.5838553  34.2382753  59.0928903
  44.9618553  34.4642753  59.5138903  37.7848553  18.9952753  65.0708903
  37.2638553  18.3672753  64.7628903  38.3758553  18.5582753  65.5418903
  37.7958553  18.8372753  65.0948903  41.0908553  21.1282753  74.3688903
  41.2078553  20.6742753  73.6328903  41.3788553  21.9262753  74.1658903
  41.1508553  21.1792753  74.2298903  51.9438553  21.6522753  61.6728903
  51.5978553  22.3302753  62.0988903  51.3078553  21.0542753  61.6888903
  51.7988553  21.6642753  61.7378903  47.2558553  34.4222753  67.7768903
  47.9998553  34.8782753  67.7668903  47.1348553  34.2082753  66.9398903
  47.3478553  34.4582753  67.6518903  36.8238553  20.7252753  73.3528903
  36.0458553  20.3352753  73.2808903  37.3148553  20.3132753  72.7618903
  36.7808553  20.6062753  73.2548903  43.4728553  18.3682753  72.5208903
  43.6508553  17.5592753  72.2458903  43.3298553  18.8092753  71.7818903
  43.4778553  18.3142753  72.3708903  44.0668553  23.2942753  61.2938903
  44.3538553  23.0622753  60.5038903  44.7988553  23.3732753  61.7628903
  44.2168553  23.2712753  61.2468903  44.7888553  23.6332753  56.4148903
  45.0698553  24.4212753  56.6638903  44.0128553  23.7982753  56.0518903
  44.7158553  23.7742753  56.3978903  48.8298553  35.6072753  57.8818903
  49.4948553  35.4592753  57.3368903  49.1898553  35.5242753  58.6718903
  48.9818553  35.5732753  57.9178903  39.2578553  35.1162753  68.9468903
  39.5498553  35.0492753  69.7668903  38.6318553  34.5112753  68.9018903
  39.2088553  35.0172753  69.0618903  51.6188553  19.9752753  67.0418903
  52.3758553  20.0472753  66.6138903  51.6818553  19.2022753  67.4408903
  51.7398553  19.8722753  67.0368903  46.5098553  31.6072753  71.4808903
  46.4758553  31.9892753  72.2648903  47.3638553  31.5652753  71.3098903
  46.6308553  31.6572753  71.5718903  43.6478553  31.8042753  56.2308903
  43.4668553  32.3492753  56.8878903  44.4138553  32.0942753  55.9298903
  43.7338553  31.9282753  56.2838903  47.1548553  19.7002753  57.2848903
  47.6948553  19.0182753  57.3608903  47.2168553  20.0982753  58.0588903
  47.2438553  19.6582753  57.4108903  35.1088553  20.8682753  59.8538903
  34.9948553  20.0042753  59.8848903  34.6338553  21.1622753  60.5238903
  35.0218553  20.7842753  59.9568903  44.4128553  22.0762753  58.5988903
  43.9048553  21.4142753  58.3448903  44.4648553  22.5802753  57.8888903
  44.3458553  22.0532753  58.4568903  44.9618553  34.7712753  68.9788903
  45.7298553  34.6912753  68.5728903  44.3788553  34.6502753  68.3408903
  44.9888553  34.7412753  68.8248903  44.4128553  19.0172753  58.4898903
  43.9578553  18.6152753  57.8638903  45.1858553  19.1722753  58.1148903
  44.4598553  18.9812753  58.3418903  51.2388553  35.3742753  61.8798903
  50.7838553  36.0912753  62.0808903  50.6248553  34.8032753  61.6378903
  51.0808553  35.3962753  61.8738903  43.0108553  21.3842753  63.0118903
  43.0848553  21.9522753  62.3538903  43.1318553  21.8762753  63.7218903
  43.0388553  21.5412753  63.0198903  48.2358553  31.2192753  61.4238903
  48.9368553  30.7372753  61.6128903  47.5758553  30.6502753  61.4688903
  48.2418553  31.0642753  61.4578903  38.6118553  32.1292753  70.6358903
  39.4528553  32.1922753  70.4138903  38.5748553  32.5262753  71.4118903
  38.7308553  32.1972753  70.7178903  37.6188553  17.2072753  61.3598903
  38.1548553  17.8952753  61.3498903  37.6218553  16.9332753  60.5318903
  37.6978553  17.2682753  61.2358903  46.8028553  21.5542753  68.8998903
  46.7078553  21.8732753  69.7058903  46.2098553  20.9152753  68.8618903
  46.7008553  21.5062753  69.0138903  47.5018553  28.2732753  67.1048903
  46.9878553  27.8612753  67.6758903  47.3758553  29.1172753  67.2858903
  47.4078553  28.3372753  67.2158903  48.0588553  17.4982753  61.7358903
  48.1078553  17.1802753  62.5468903  48.3818553  16.8542753  61.2428903
  48.1138553  17.3562753  61.7828903  34.1458553  31.9492753  74.1858903
  34.9018553  32.2982753  74.4438903  34.3228553  31.0962753  74.1288903
  34.2838553  31.8742753  74.2158903  50.5228553  21.7342753  70.0438903
  51.2948553  21.5092753  70.3808903  50.0478553  21.9512753  70.7438903
  50.5668553  21.7332753  70.1968903  38.0668553  21.0172753  63.0138903
  38.3388553  20.5872753  62.3058903  37.8908553  20.3812753  63.5848903
  38.0808553  20.8602753  62.9938903  50.7548553  28.7122753  57.2318903
  50.8738553  28.4252753  58.0468903  51.5618553  28.7332753  56.9018903
  50.8908553  28.6732753  57.3038903  36.2078553  22.1192753  66.0958903
  37.0508553  22.3392753  66.0528903  35.8188553  22.6922753  65.5648903
  36.2748553  22.2362753  66.0108903  52.9888553  33.2212753  71.4858903
  52.3068553  33.5312753  71.0388903  52.6198553  32.7632753  72.1308903
  52.8328553  33.1992753  71.5148903  48.6498553  25.2492753  56.8168903
  48.4298553  25.9802753  56.3948903  48.2018553  25.3002753  57.5638903
  48.5508553  25.3642753  56.8648903  52.8368553  20.1102753  56.2698903
  52.1748553  19.5422753  56.2928903  52.6438553  20.6222753  55.5898903
  52.7108553  20.1022753  56.1728903  42.0618553  23.8042753  74.2138903
  41.5778553  24.3812753  74.6558903  42.0338553  24.0992753  73.3928903
  41.9858553  23.9332753  74.1578903  50.8388553  19.6682753  58.5488903
  51.5848553  19.2612753  58.7478903  51.1018553  20.3832753  58.1238903
  50.9878553  19.7142753  58.5158903  47.2928553  21.9562753  63.6218903
  47.6368553  22.1082753  64.4088903  46.8398553  21.2182753  63.7348903
  47.2768553  21.8692753  63.7548903  41.7688553  21.1762753  58.0788903
  41.7668553  21.0592753  57.2138903  41.5878553  22.0242753  58.1708903
  41.7418553  21.2842753  57.9648903  50.8228553  33.6032753  69.5758903
  50.1518553  34.1172753  69.7938903  50.8858553  33.7032753  68.7118903
  50.7328553  33.6942753  69.4808903  37.6368553  24.6112753  72.5728903
  37.1008553  24.1052753  73.0408903  37.6568553  24.2212753  71.7928903
  37.5598553  24.4782753  72.5268903  48.6138553  23.2882753  66.1758903
  47.9518553  23.6162753  66.6388903  48.8008553  23.9222753  65.6068903
  48.5438553  23.4302753  66.1598903  45.2588553  19.1942753  69.6048903
  45.4078553  18.3692753  69.3618903  45.6378553  19.2492753  70.3888903
  45.3368553  19.0802753  69.6848903  46.8068553  21.2572753  59.6868903
  47.2968553  21.9742753  59.6098903  46.0168553  21.5182753  59.4238903
  46.7628553  21.4012753  59.6368903  36.5178553  26.9302753  73.3388903
  36.4808553  27.4312753  72.6248903  36.8488553  26.1782753  73.0438903
  36.5608553  26.8922753  73.1898903  48.1208553  29.1352753  71.5968903
  48.6048553  29.8532753  71.6948903  48.5148553  28.7082753  70.9458903
  48.2508553  29.1782753  71.5148903  42.4168553  31.9802753  72.7738903
  42.7708553  31.8022753  73.5508903  41.9808553  31.2512753  72.5748903
  42.4048553  31.8462753  72.8598903  45.5778553  25.8962753  57.6858903
  45.5698553  26.6182753  57.1958903  44.9388553  26.0312753  58.2628903
  45.4828553  26.0232753  57.6988903  50.5498553  29.7662753  61.6668903
  50.9058553  29.4162753  62.3818903  50.5418553  29.1052753  61.0968903
  50.6018553  29.6162753  61.6878903  40.1708553  18.2382753  57.3468903
  40.2678553  18.1312753  58.2078903  39.4628553  18.7442753  57.2818903
  40.0808553  18.2972753  57.4648903  42.7918553  34.0112753  57.7608903
  43.4138553  34.1742753  58.3508903  42.8278553  34.7022753  57.2288903
  42.8888553  34.1372753  57.7698903  49.8678553  27.6812753  69.7568903
  49.9228553  27.8062753  68.8948903  50.6208553  28.0012753  70.0588903
  49.9868553  27.7462753  69.6738903  46.0588553  33.0302753  74.0338903
  46.2228553  33.3132753  74.8428903  46.3218553  33.6912753  73.5288903
  46.1218553  33.1702753  74.0788903  50.8998553  17.9792753  72.7438903
  50.2628553  17.5792753  72.3018903  50.9258553  17.5482753  73.5018903
  50.8098553  17.8572753  72.7898903  45.5988553  27.4872753  69.3568903
  45.4438553  28.0972753  69.9608903  46.1328553  26.9292753  69.7628903
  45.6548553  27.4952753  69.5058903  34.2898553  18.2062753  59.5578903
  34.4188553  17.4982753  59.0658903  33.9228553  17.8882753  60.2828903
  34.2548553  18.0542753  59.5928903  43.9828553  25.8872753  60.0148903
  44.0418553  26.5372753  60.5938903  43.7938553  25.1912753  60.5058903
  43.9638553  25.8802753  60.1728903  49.2088553  30.2162753  65.8838903
  48.7298553  30.5142753  65.2178903  48.8528553  29.4402753  66.0618903
  49.0858553  30.1452753  65.8118903  38.4788553  20.4042753  56.5268903
  37.9678553  20.4572753  55.8208903  39.2628553  20.6442753  56.2308903
  38.5188553  20.4472753  56.3788903  52.9008553  34.3822753  57.8238903
  53.5948553  33.9152753  57.5758903  52.3618553  33.7842753  58.1608903
  52.9238553  34.2242753  57.8368903  50.1398553  27.1582753  67.0028903
  50.1328553  26.3822753  67.4008903  49.2988553  27.3922753  66.9958903
  50.0148553  27.0782753  67.0608903  39.6298553  25.5702753  55.6378903
  39.0198553  25.1652753  56.1118903  39.2438553  25.6882753  54.8648903
  39.4828553  25.5272753  55.5938903  36.4488553  28.6792753  71.0398903
  36.0278553  28.1612753  70.4788903  36.0968553  29.4652753  70.8968903
  36.3348553  28.7192753  70.9358903  51.3958553  27.2292753  64.4398903
  51.1098553  27.6302753  65.1598903  52.2558553  27.1672753  64.5668903
  51.4808553  27.2792753  64.5648903  41.0848553  24.0312753  58.3478903
  41.3568553  24.8572753  58.4148903  40.2218553  24.1062753  58.2518903
  40.9978553  24.1642753  58.3428903  49.0578553  21.1532753  72.9798903
  48.5328553  21.6122753  73.5038903  48.6968553  20.3582753  72.9738903
  48.9268553  21.1032753  73.0558903  34.5648553  20.0012753  64.8838903
  34.6088553  20.3452753  64.0828903  35.3198553  20.2382753  65.2508903
  34.6828553  20.0872753  64.8198903  52.5268553  32.8622753  64.9688903
  52.8168553  33.1192753  64.1878903  53.2218553  32.9582753  65.4878903
  52.6728553  32.9142753  64.9298903  47.5498553  24.7222753  73.0558903
  47.6228553  24.8262753  73.9188903  46.9158553  25.2802753  72.8348903
  47.4668553  24.8202753  73.1508903  49.8178553  25.0412753  71.4208903
  50.1368553  25.8272753  71.6238903  49.4478553  24.7712753  72.1638903
  49.8108553  25.1172753  71.5608903  49.1318553  31.4652753  56.9508903
  49.4658553  30.6592753  56.9858903  48.3768553  31.3932753  57.3808903
  49.0698553  31.3352753  57.0198903  49.6138553  23.2992753  62.6098903
  48.8688553  22.9762753  62.9278903  49.6158553  24.1252753  62.8898903
  49.5038553  23.3732753  62.6978903  52.5158553  25.5832753  74.1558903
  52.4638553  25.2422753  73.3548903  53.2528553  26.0502753  74.1338903
  52.6168553  25.6022753  74.0338903  52.0538553  29.2592753  70.3618903
  52.6818553  28.7102753  70.1058903  51.9928553  29.8242753  69.6998903
  52.1378553  29.2622753  70.2258903  46.5058553  29.3402753  56.3538903
  47.1898553  28.8262753  56.1848903  46.0888553  29.3862753  55.5888903
  46.5448553  29.2712753  56.2158903  39.1668553  29.4402753  71.0558903
  38.3608553  29.1502753  71.2228903  39.0778553  30.3082753  71.0618903
  39.0348553  29.5252753  71.0808903  48.5258553  19.6292753  70.0708903
  49.2698553  20.0812753  70.0078903  47.9598553  20.0992753  69.6018903
  48.5528553  19.7662753  69.9928903  49.8108553  17.6092753  67.7408903
  49.5308553  18.4342753  67.6968903  50.5268553  17.6622753  68.2368903
  49.8758553  17.7392753  67.8078903  42.1658553  18.3242753  69.7698903
  42.8708553  18.6442753  69.3678903  42.4068553  17.5172753  69.9968903
  42.3048553  18.2522753  69.7438903  45.4598553  29.1682753  72.7548903
  46.2168553  29.4542753  72.4288903  44.9128553  29.2202753  72.0768903
  45.4908553  29.2182753  72.6058903  49.3688553  31.7182753  71.2588903
  49.7148553  31.9882753  72.0128903  49.6628553  32.3002753  70.6788903
  49.4638553  31.8442753  71.2848903  51.2318553  23.8642753  56.5978903
  51.6098553  24.5412753  56.1978903  50.3898553  24.0882753  56.6288903
  51.1628553  23.9972753  56.5428903  42.7448553  27.3102753  55.6808903
  41.9398553  27.1332753  55.3958903  42.7118553  28.1612753  55.8728903
  42.6208553  27.4092753  55.6678903  46.6908553  22.4792753  71.4228903
  46.0428553  22.9492753  71.7708903  47.2558553  22.3902753  72.0818903
  46.6788553  22.5352753  71.5718903  46.3788553  24.0162753  67.7208903
  46.6808553  24.4362753  68.4238903  46.4148553  23.1762753  67.9528903
  46.4288553  23.9542753  67.8588903  43.8038553  34.1832753  71.6458903
  44.2818553  33.5832753  71.2298903  43.4528553  33.7402753  72.3108903
  43.8228553  34.0292753  71.6828903  48.9268553  23.4632753  59.9728903
  49.1338553  23.2622753  60.7968903  49.6828553  23.7312753  59.6308903
  49.0688553  23.4732753  60.0438903  42.2218553  18.3622753  65.8778903
  41.3958553  18.2132753  66.1148903  42.1818553  18.3972753  65.0068903
  42.0938553  18.3452753  65.7838903  49.9488553  19.5462753  61.4468903
  49.2348553  19.0752753  61.6178903  49.7868553  19.8872753  60.6608903
  49.8198553  19.5272753  61.3558903  50.3918553  27.4902753  59.8268903
  50.8678553  26.7612753  59.7788903  49.5708553  27.2042753  59.7508903
  50.3408553  27.3402753  59.8078903  43.8628553  29.4022753  70.6658903
  43.0678553  29.3382753  71.0168903  43.9338553  30.2492753  70.4708903
  43.7558553  29.5172753  70.6888903  34.7868553  18.7602753  71.9128903
  34.6468553  19.5552753  71.5818903  34.0008553  18.5172753  72.2018903
  34.6498553  18.8422753  71.9068903  37.8508553  21.5042753  59.1378903
  37.9768553  21.1752753  58.3398903  37.0388553  21.2552753  59.3368903
  37.7498553  21.4192753  59.0498903  52.5278553  24.6582753  71.5848903
  51.6728553  24.5362753  71.7108903  52.6808553  24.2632753  70.8218903
  52.4238553  24.5812753  71.4908903  47.0408553  25.3232753  70.1608903
  46.7858553  24.6042753  70.5828903  47.8618553  25.4392753  70.4308903
  47.1248553  25.2342753  70.2628903  36.4568553  35.1072753  71.4248903
  35.8028553  34.5382753  71.5228903  36.0818553  35.8802753  71.5758903
  36.3048553  35.1372753  71.4618903  44.9748553  26.5132753  73.3478903
  45.2978553  27.1992753  72.9158903  44.2708553  26.8362753  73.7498903
  44.9178553  26.6622753  73.3428903  48.0588553  34.8872753  64.2768903
  47.6078553  35.5302753  64.6558903  48.7668553  34.8082753  64.7818903
  48.0968553  34.9702753  64.4078903  50.1368553  32.5702753  73.7868903
  50.9128553  32.1802753  73.8698903  49.6678553  32.2342753  74.4418903
  50.1818553  32.4632753  73.8958903  37.8278553  23.5152753  69.5538903
  38.2028553  24.1342753  69.0668903  38.5018553  23.0412753  69.8388903
  37.9828553  23.5372753  69.5238903  35.6028553  21.9632753  68.8288903
  35.6798553  21.7942753  67.9758903  36.3488553  22.3692753  69.0258903
  35.7238553  21.9982753  68.7318903  51.1618553  24.6032753  59.2688903
  51.2648553  24.5452753  58.4048903  51.9028553  24.2712753  59.5868903
  51.2868553  24.5462753  59.1878903  38.1568553  19.3732753  71.2398903
  38.0758553  18.5292753  71.4458903  37.8428553  19.4172753  70.4268903
  38.0988553  19.2552753  71.1498903  45.0818553  31.5682753  60.3758903
  44.8768553  32.4012753  60.2168903  44.3068553  31.1862753  60.4978903
  44.9368553  31.6352753  60.3708903  50.2638553  24.7492753  68.6248903
  50.2618553  23.8862753  68.7488903  50.3308553  25.0732753  69.4318903
  50.2738553  24.6692753  68.7618903  36.4558553  23.1252753  55.6708903
  35.7838553  23.1392753  56.2268903  36.5508553  22.2772753  55.4868903
  36.3708553  23.0022753  55.7258903  46.1428553  19.5492753  72.4068903
  46.2348553  20.2612753  72.9008903  45.5058553  19.1042753  72.8038903
  46.0618553  19.5882753  72.5388903  45.1368553  19.7392753  63.2608903
  44.4368553  20.2572753  63.2048903  45.1748553  19.3592753  62.4768903
  45.0388553  19.7602753  63.1368903  48.7348553  20.2552753  66.0608903
  49.5898553  20.3542753  66.2058903  48.3658553  20.8082753  66.6258903
  48.8068553  20.3522753  66.1658903  49.0388553  25.5352753  64.5518903
  49.7048553  26.0762753  64.7118903  48.6938553  25.8462753  63.8128903
  49.0858553  25.6612753  64.4668903  49.3518553  33.6012753  60.3588903
  49.1778553  32.9472753  60.9088903  50.0648553  33.3302753  59.9358903
  49.4318553  33.4642753  60.3778903  40.5918553  29.1452753  56.1288903
  39.7738553  28.8772753  56.2688903  40.5638553  29.9972753  56.3138903
  40.4668553  29.2322753  56.1768903  40.1918553  19.4582753  67.8878903
  39.3278553  19.5422753  67.9678903  40.4118553  18.9442753  68.5568903
  40.0968553  19.3952753  67.9988903  52.2098553  18.0932753  69.2168903
  52.1578553  18.0492753  70.0868903  52.8968553  17.5902753  69.0268903
  52.3038553  18.0132753  69.3168903  44.2948553  20.2062753  66.2618903
  43.5578553  19.7522753  66.3748903  44.8658553  19.8042753  66.7848903
  44.2698553  20.0792753  66.3558903  46.5608553  35.2682753  72.2958903
  45.8078553  35.2502753  71.8548903  46.7288553  36.1202753  72.3798903
  46.4748553  35.3912753  72.2428903  42.5938553  17.7872753  56.0928903
  42.6718553  18.0342753  55.2598903  41.8508553  18.1642753  56.3508903
  42.4958553  17.8792753  56.0078903  51.8388553  29.6932753  67.5078903
  51.8068553  28.8312753  67.3728903  51.1458553  29.9952753  67.0738903
  51.7318553  29.6102753  67.4238903  40.2328553  34.8912753  71.7138903
  40.2738553  35.0172753  72.5768903  40.8838553  34.3312753  71.5578903
  40.3348553  34.8272753  71.8188903  49.9438553  32.9532753  66.3048903
  50.4708553  32.8702753  65.6138903  49.5528553  32.1752753  66.3588903
  49.9638553  32.8262753  66.2108903  37.4118553  19.5412753  68.5358903
  37.0688553  18.7742753  68.3018903  36.7168553  20.0652753  68.5998903
  37.2588553  19.5052753  68.5108903  46.4578553  18.3972753  65.5128903
  47.1278553  18.9412753  65.6398903  45.9548553  18.8212753  64.9398903
  46.4828553  18.5402753  65.4468903  37.8258553  33.2742753  73.0738903
  38.4208553  33.7052753  73.5458903  37.4618553  33.8982753  72.5848903
  37.8598553  33.4302753  73.0708903  45.8168553  24.2052753  63.0058903
  46.3678553  23.5982753  63.3058903  45.3918553  24.4682753  63.7208903
  45.8358553  24.1542753  63.1548903  35.7528553  31.2632753  70.0028903
  35.1788553  31.6792753  70.5118903  36.4858553  31.7282753  70.0978903
  35.7768553  31.3932753  70.0918903  47.7868553  26.0362753  59.5678903
  47.8548553  25.1862753  59.7488903  46.9638553  26.1222753  59.2898903
  47.6748553  25.9232753  59.5538903  41.7058553  26.9272753  58.5058903
  41.8058553  27.0662753  57.6508903  42.5238553  26.8672753  58.8018903
  41.8408553  26.9382753  58.4228903  50.8658553  34.9912753  55.9858903
  51.5028553  34.8572753  56.5668903  50.5248553  34.1972753  55.8688903
  50.9098553  34.8542753  56.0538903  51.0608553  27.4092753  72.7188903
  51.6948553  27.2392753  73.2928903  51.4778553  27.8122753  72.0668903
  51.2158553  27.4442753  72.7078903  46.9408553  31.2562753  58.3078903
  46.6898553  31.1282753  59.1338903  46.6238553  30.5612753  57.8868903
  46.8568553  31.1352753  58.3678903  51.6858553  21.9732753  73.4568903
  51.4898553  22.6172753  74.0118903  50.9638553  21.4832753  73.4488903
  51.5508553  21.9962753  73.5378903  51.5848553  22.9142753  66.4278903
  50.7518553  23.1642753  66.3558903  51.5288553  22.0742753  66.6568903
  51.4538553  22.8272753  66.4508903  40.8448553  19.9022753  71.6218903
  41.0788553  19.3262753  71.0088903  40.0028553  19.7212753  71.7628903
  40.7548553  19.7902753  71.5518903  48.4718553  27.5202753  74.0738903
  49.3428553  27.4842753  74.0378903  48.2528553  27.9402753  73.3418903
  48.5688553  27.5762753  73.9608903  43.8268553  29.4642753  57.7378903
  44.5438553  29.1172753  57.3818903  43.7928553  30.2642753  57.3898903
  43.9278553  29.5312753  57.6338903  35.7978553  35.5892753  68.8358903
  36.2908553  35.5332753  69.5538903  35.9858553  34.8562753  68.4008903
  35.8988553  35.4722753  68.8778903  45.2358553  18.1052753  41.9766493
  44.9908553  18.5932753  41.2966493  46.0988553  18.0322753  41.8766493
  45.3268553  18.1662753  41.8616493  45.0448553  25.0212753  46.6476493
  44.5208553  25.6172753  47.0106493  45.4418553  24.6532753  47.3316493
  45.0258553  25.0552753  46.8026493  51.1888553  32.4622753  39.6186493
  51.8898553  31.9432753  39.6146493  50.6018553  32.0172753  39.1496493
  51.2058553  32.3192753  39.5486493  34.6568553  22.9532753  38.6106493
  33.8788553  23.1152753  38.2506493  34.6958553  22.0822753  38.6326493
  34.5478553  22.8482753  38.5606493  47.7158553  26.0882753  43.3236493
  47.7958553  26.0922753  42.4546493  47.1318553  25.4562753  43.4726493
  47.6408553  25.9952753  43.2176493  37.4228553  29.8572753  41.1826493
  38.0308553  29.6872753  41.7856493  36.6718553  29.7172753  41.6036493
  37.4018553  29.8112753  41.3336493  41.7048553  19.1922753  41.1316493
  41.6348553  19.8692753  40.5856493  42.4458553  18.8042753  40.8826493
  41.8038553  19.2352753  41.0136493  41.4278553  29.4212753  53.4256493
  41.1918553  29.4182753  54.2656493  40.6798553  29.2732753  53.0016493
  41.2818553  29.3982753  53.4866493  36.2998553  26.4172753  42.5606493
  35.8378553  26.0252753  41.9336493  36.9998553  25.9042753  42.6526493
  36.3348553  26.2842753  42.4816493  40.8078553  22.0272753  47.9076493
  41.4858553  22.0452753  47.3586493  40.7628553  21.1912753  48.1526493
  40.9008553  21.9062753  47.8626493  41.4098553  32.6132753  50.6886493
  41.5478553  33.3732753  50.2816493  42.2008553  32.2482753  50.7156493
  41.5468553  32.6722753  50.6326493  38.3008553  24.5172753  42.5836493
  39.1178553  24.3302753  42.8266493  37.8238553  23.9032753  42.9796493
  38.3508553  24.3992753  42.6786493  42.5048553  30.4982753  45.1936493
  42.8528553  29.6992753  45.2236493  43.1698553  31.0022753  44.9386493
  42.6548553  30.4542753  45.1606493  42.5618553  29.9472753  41.4046493
  42.8928553  29.3032753  41.8906493  42.8018553  29.7362753  40.5936493
  42.6458553  29.8212753  41.3566493  44.5298553  24.0782753  52.7436493
  43.6818553  23.9792753  52.5656493  44.5588553  24.8232753  53.1976493
  44.4088553  24.1742753  52.7846493  38.8978553  19.6112753  41.8496493
  38.6018553  20.1122753  41.1996493  39.7648553  19.6892753  41.7926493
  38.9818553  19.6972753  41.7456493  49.0878553  17.0382753  51.8576493
  48.9298553  17.8072753  51.4756493  48.3158553  16.8182753  52.2016493
  48.9498553  17.1192753  51.8526493  41.8768553  18.7532753  44.0726493
  41.9498553  19.6132753  44.2016493  41.8388553  18.6782753  43.2046493
  41.8818553  18.8692753  43.9636493  46.5498553  21.6792753  36.3716493
  46.0998553  22.3602753  36.6786493  46.6638553  21.1752753  37.0746493
  46.5008553  21.7052753  36.5206493  34.7558553  24.1782753  45.5736493
  34.4998553  25.0092753  45.4986493  34.0918553  23.7952753  45.9906493
  34.6198553  24.2442753  45.6246493  40.5058553  31.7322753  40.9536493
  39.9268553  31.4572753  41.5456493  41.1298553  31.1232753  40.9786493
  40.5128553  31.6022753  41.0446493  46.6488553  34.0202753  38.4756493
  47.3758553  34.4922753  38.5776493  46.8778553  33.2262753  38.7556493
  46.7908553  33.9732753  38.5326493  44.8168553  34.4122753  40.4656493
  45.0308553  34.9392753  41.1276493  45.5838553  34.2382753  40.0866493
  44.9618553  34.4642753  40.5076493  37.7848553  18.9952753  46.0646493
  37.2638553  18.3672753  45.7566493  38.3758553  18.5582753  46.5356493
  37.7958553  18.8372753  46.0886493  41.0908553  21.1282753  55.3626493
  41.2078553  20.6742753  54.6266493  41.3788553  21.9262753  55.1596493
  41.1508553  21.1792753  55.2236493  51.9438553  21.6522753  42.6666493
  51.5978553  22.3302753  43.0926493  51.3078553  21.0542753  42.6826493
  51.7988553  21.6642753  42.7316493  47.2558553  34.4222753  48.7706493
  47.9998553  34.8782753  48.7606493  47.1348553  34.2082753  47.9336493
  47.3478553  34.4582753  48.6456493  36.8238553  20.7252753  54.3466493
  36.0458553  20.3352753  54.2746493  37.3148553  20.3132753  53.7556493
  36.7808553  20.6062753  54.2486493  37.0288553  31.0452753  44.9046493
  37.4518553  30.6892753  44.2306493  37.3528553  30.6232753  45.5966493
  37.1388553  30.9302753  44.9076493  40.2598553  33.8972753  44.2006493
  41.1038553  34.0012753  44.0056493  39.9628553  34.7152753  44.2686493
  40.3408553  34.0332753  44.1816493  43.4728553  18.3682753  53.5146493
  43.6508553  17.5592753  53.2396493  43.3298553  18.8092753  52.7756493
  43.4778553  18.3142753  53.3646493  44.0668553  23.2942753  42.2876493
  44.3538553  23.0622753  41.4976493  44.7988553  23.3732753  42.7566493
  44.2168553  23.2712753  42.2406493  44.7888553  23.6332753  37.4086493
  45.0698553  24.4212753  37.6576493  44.0128553  23.7982753  37.0456493
  44.7158553  23.7742753  37.3916493  48.8298553  35.6072753  38.8756493
  49.4948553  35.4592753  38.3306493  49.1898553  35.5242753  39.6656493
  48.9818553  35.5732753  38.9116493  51.6188553  19.9752753  48.0356493
  52.3758553  20.0472753  47.6076493  51.6818553  19.2022753  48.4346493
  51.7398553  19.8722753  48.0306493  34.1718553  21.2732753  51.9326493
  34.1678553  21.8602753  52.5786493  34.7658553  21.5852753  51.3756493
  34.2588553  21.4062753  51.9456493  46.5098553  31.6072753  52.4746493
  46.4758553  31.9892753  53.2586493  47.3638553  31.5652753  52.3036493
  46.6308553  31.6572753  52.5656493  43.6478553  31.8042753  37.2246493
  43.4668553  32.3492753  37.8816493  44.4138553  32.0942753  36.9236493
  43.7338553  31.9282753  37.2776493  47.1548553  19.7002753  38.2786493
  47.6948553  19.0182753  38.3546493  47.2168553  20.0982753  39.0526493
  47.2438553  19.6582753  38.4046493  35.1088553  20.8682753  40.8476493
  34.9948553  20.0042753  40.8786493  34.6338553  21.1622753  41.5176493
  35.0218553  20.7842753  40.9506493  44.4128553  22.0762753  39.5926493
  43.9048553  21.4142753  39.3386493  44.4648553  22.5802753  38.8826493
  44.3458553  22.0532753  39.4506493  44.9618553  34.7712753  49.9726493
  45.7298553  34.6912753  49.5666493  44.3788553  34.6502753  49.3346493
  44.9888553  34.7412753  49.8186493  44.4128553  19.0172753  39.4836493
  43.9578553  18.6152753  38.8576493  45.1858553  19.1722753  39.1086493
  44.4598553  18.9812753  39.3356493  51.2388553  35.3742753  42.8736493
  50.7838553  36.0912753  43.0746493  50.6248553  34.8032753  42.6316493
  51.0808553  35.3962753  42.8676493  43.0108553  21.3842753  44.0056493
  43.0848553  21.9522753  43.3476493  43.1318553  21.8762753  44.7156493
  43.0388553  21.5412753  44.0136493  48.2358553  31.2192753  42.4176493
  48.9368553  30.7372753  42.6066493  47.5758553  30.6502753  42.4626493
  48.2418553  31.0642753  42.4516493  37.6188553  17.2072753  42.3536493
  38.1548553  17.8952753  42.3436493  37.6218553  16.9332753  41.5256493
  37.6978553  17.2682753  42.2296493  40.5748553  27.6402753  46.3786493
  40.7468553  27.4302753  47.2076493  39.9198553  27.1062753  46.1626493
  40.5038553  27.5302753  46.4696493  46.8028553  21.5542753  49.8936493
  46.7078553  21.8732753  50.6996493  46.2098553  20.9152753  49.8556493
  46.7008553  21.5062753  50.0076493  41.3248553  27.5782753  48.9686493
  41.3778553  28.4252753  49.1706493  41.0398553  27.2082753  49.7056493
  41.2908553  27.6482753  49.1066493  47.5018553  28.2732753  48.0986493
  46.9878553  27.8612753  48.6696493  47.3758553  29.1172753  48.2796493
  47.4078553  28.3372753  48.2096493  48.0588553  17.4982753  42.7296493
  48.1078553  17.1802753  43.5406493  48.3818553  16.8542753  42.2366493
  48.1138553  17.3562753  42.7766493  50.5228553  21.7342753  51.0376493
  51.2948553  21.5092753  51.3746493  50.0478553  21.9512753  51.7376493
  50.5668553  21.7332753  51.1906493  38.0668553  21.0172753  44.0076493
  38.3388553  20.5872753  43.2996493  37.8908553  20.3812753  44.5786493
  38.0808553  20.8602753  43.9876493  50.7548553  28.7122753  38.2256493
  50.8738553  28.4252753  39.0406493  51.5618553  28.7332753  37.8956493
  50.8908553  28.6732753  38.2976493  37.8908553  28.4442753  43.5566493
  38.7418553  28.3642753  43.3836493  37.5338553  27.7622753  43.1446493
  37.9638553  28.3312753  43.4696493  36.6578553  35.1692753  44.7936493
  35.9848553  34.6712753  44.5486493  37.0608553  35.3542753  44.0426493
  36.6178553  35.1232753  44.6466493  36.2078553  22.1192753  47.0896493
  37.0508553  22.3392753  47.0466493  35.8188553  22.6922753  46.5586493
  36.2748553  22.2362753  47.0046493  52.9888553  33.2212753  52.4796493
  52.3068553  33.5312753  52.0326493  52.6198553  32.7632753  53.1246493
  52.8328553  33.1992753  52.5086493  48.6498553  25.2492753  37.8106493
  48.4298553  25.9802753  37.3886493  48.2018553  25.3002753  38.5576493
  48.5508553  25.3642753  37.8586493  40.2588553  28.4512753  41.7916493
  40.9718553  28.9462753  41.8816493  40.4808553  27.8842753  41.1656493
  40.3968553  28.4402753  41.7126493  52.8368553  20.1102753  37.2636493
  52.1748553  19.5422753  37.2866493  52.6438553  20.6222753  36.5836493
  52.7108553  20.1022753  37.1666493  34.4148553  30.0942753  45.1116493
  33.7478553  30.5822753  45.3876493  35.0948553  30.6392753  45.1406493
  34.4168553  30.2462753  45.1566493  42.0618553  23.8042753  55.2076493
  41.5778553  24.3812753  55.6496493  42.0338553  24.0992753  54.3866493
  41.9858553  23.9332753  55.1516493  53.1598553  24.4882753  49.8196493
  53.3748553  23.6882753  49.5436493  52.3098553  24.5482753  49.6306493
  53.0658553  24.3792753  49.7506493  50.8388553  19.6682753  39.5426493
  51.5848553  19.2612753  39.7416493  51.1018553  20.3832753  39.1176493
  50.9878553  19.7142753  39.5096493  44.7818553  32.1542753  44.1186493
  44.2588553  32.7882753  43.8256493  45.0918553  31.7902753  43.3896493
  44.7498553  32.1942753  43.9676493  47.2928553  21.9562753  44.6156493
  47.6368553  22.1082753  45.4026493  46.8398553  21.2182753  44.7286493
  47.2768553  21.8692753  44.7486493  35.4228553  27.6122753  45.4226493
  35.8538553  27.4832753  44.6756493  35.2178553  28.4602753  45.3966493
  35.4558553  27.7182753  45.3086493  41.7688553  21.1762753  39.0726493
  41.7668553  21.0592753  38.2076493  41.5878553  22.0242753  39.1646493
  41.7418553  21.2842753  38.9586493  50.8228553  33.6032753  50.5696493
  50.1518553  34.1172753  50.7876493  50.8858553  33.7032753  49.7056493
  50.7328553  33.6942753  50.4746493  39.5068553  31.1282753  43.7046493
  39.6328553  31.9712753  43.8916493  40.1748553  30.7292753  44.1006493
  39.6248553  31.1942753  43.7906493  37.6368553  24.6112753  53.5666493
  37.1008553  24.1052753  54.0346493  37.6568553  24.2212753  52.7866493
  37.5598553  24.4782753  53.5206493  38.1218553  24.0082753  38.7066493
  37.9938553  23.5602753  39.4446493  37.5398553  23.6662753  38.1546493
  38.0168553  23.8912753  38.7346493  38.2888553  25.8382753  45.3056493
  37.5078553  25.7792753  44.9226493  38.3608553  25.0862753  45.7426493
  38.1838553  25.7192753  45.3136493  38.7188553  25.5752753  48.7736493
  38.7438553  24.9002753  48.2226493  38.0728553  26.0712753  48.4616493
  38.6278553  25.5482753  48.6466493  48.6138553  23.2882753  47.1696493
  47.9518553  23.6162753  47.6326493  48.8008553  23.9222753  46.6006493
  48.5438553  23.4302753  47.1536493  42.8188553  34.3522753  48.1656493
  42.5418553  33.7112753  47.6426493  42.6108553  35.0782753  47.7276493
  42.7478553  34.3652753  48.0236493  45.2588553  19.1942753  50.5986493
  45.4078553  18.3692753  50.3556493  45.6378553  19.2492753  51.3826493
  45.3368553  19.0802753  50.6786493  46.8068553  21.2572753  40.6806493
  47.2968553  21.9742753  40.6036493  46.0168553  21.5182753  40.4176493
  46.7628553  21.4012753  40.6306493  36.5178553  26.9302753  54.3326493
  36.4808553  27.4312753  53.6186493  36.8488553  26.1782753  54.0376493
  36.5608553  26.8922753  54.1836493  48.1208553  29.1352753  52.5906493
  48.6048553  29.8532753  52.6886493  48.5148553  28.7082753  51.9396493
  48.2508553  29.1782753  52.5086493  42.4168553  31.9802753  53.7676493
  42.7708553  31.8022753  54.5446493  41.9808553  31.2512753  53.5686493
  42.4048553  31.8462753  53.8536493  43.3888553  22.7272753  46.4056493
  43.8688553  23.4262753  46.6136493  43.7618553  22.0802753  46.8566493
  43.5148553  22.7352753  46.5026493  45.5778553  25.8962753  38.6796493
  45.5698553  26.6182753  38.1896493  44.9388553  26.0312753  39.2566493
  45.4828553  26.0232753  38.6926493  50.5498553  29.7662753  42.6606493
  50.9058553  29.4162753  43.3756493  50.5418553  29.1052753  42.0906493
  50.6018553  29.6162753  42.6816493  46.5948553  32.8322753  46.5046493
  45.9918553  32.5362753  45.9476493  47.1398553  33.2842753  45.9956493
  46.5858553  32.8552753  46.3466493  46.6078553  29.6832753  45.9046493
  45.8108553  29.9072753  46.1786493  46.8658553  29.0892753  46.4896493
  46.5278553  29.6282753  46.0316493  40.4998553  34.4952753  40.3526493
  40.3528553  33.7192753  40.7236493  41.1888553  34.3482753  39.8376493
  40.5798553  34.3582753  40.3316493  40.1708553  18.2382753  38.3406493
  40.2678553  18.1312753  39.2016493  39.4628553  18.7442753  38.2756493
  40.0808553  18.2972753  38.4586493  42.7918553  34.0112753  38.7546493
  43.4138553  34.1742753  39.3446493  42.8278553  34.7022753  38.2226493
  42.8888553  34.1372753  38.7636493  49.8678553  27.6812753  50.7506493
  49.9228553  27.8062753  49.8886493  50.6208553  28.0012753  51.0526493
  49.9868553  27.7462753  50.6676493  46.0588553  33.0302753  55.0276493
  46.2228553  33.3132753  55.8366493  46.3218553  33.6912753  54.5226493
  46.1218553  33.1702753  55.0726493  50.8998553  17.9792753  53.7376493
  50.2628553  17.5792753  53.2956493  50.9258553  17.5482753  54.4956493
  50.8098553  17.8572753  53.7836493  37.2928553  26.5452753  39.5836493
  37.6168553  25.7662753  39.3616493  37.9388553  26.9132753  40.0386493
  37.4358553  26.4842753  39.6176493  45.5988553  27.4872753  50.3506493
  45.4438553  28.0972753  50.9546493  46.1328553  26.9292753  50.7566493
  45.6548553  27.4952753  50.4996493  34.2898553  18.2062753  40.5516493
  34.4188553  17.4982753  40.0596493  33.9228553  17.8882753  41.2766493
  34.2548553  18.0542753  40.5866493  43.9828553  25.8872753  41.0086493
  44.0418553  26.5372753  41.5876493  43.7938553  25.1912753  41.4996493
  43.9638553  25.8802753  41.1666493  49.2088553  30.2162753  46.8776493
  48.7298553  30.5142753  46.2116493  48.8528553  29.4402753  47.0556493
  49.0858553  30.1452753  46.8056493  38.4788553  20.4042753  37.5206493
  37.9678553  20.4572753  36.8146493  39.2628553  20.6442753  37.2246493
  38.5188553  20.4472753  37.3726493  43.2058553  27.9342753  45.4396493
  42.3588553  27.7402753  45.5206493  43.5298553  27.7692753  46.2326493
  43.1278553  27.8812753  45.5686493  39.9578553  34.6642753  36.3256493
  40.3968553  33.9672753  36.6136493  40.1648553  35.2882753  36.8986493
  40.0538553  34.6532753  36.4526493  37.0538553  27.6272753  47.7556493
  37.7758553  28.1152753  47.7186493  36.7838553  27.5972753  46.9266493
  37.1208553  27.6952753  47.6276493  40.2838553  22.7982753  44.4906493
  41.1298553  22.6082753  44.5886493  39.9138553  22.0212753  44.3526493
  40.3538553  22.6552753  44.4846493  52.9008553  34.3822753  38.8176493
  53.5948553  33.9152753  38.5696493  52.3618553  33.7842753  39.1546493
  52.9238553  34.2242753  38.8306493  35.1048553  24.1362753  41.1456493
  35.5938553  23.8442753  41.8066493  35.2338553  23.5432753  40.5186493
  35.1958553  24.0052753  41.1506493  50.1398553  27.1582753  47.9966493
  50.1328553  26.3822753  48.3946493  49.2988553  27.3922753  47.9896493
  50.0148553  27.0782753  48.0546493  51.3958553  27.2292753  45.4336493
  51.1098553  27.6302753  46.1536493  52.2558553  27.1672753  45.5606493
  51.4808553  27.2792753  45.5586493  41.0848553  24.0312753  39.3416493
  41.3568553  24.8572753  39.4086493  40.2218553  24.1062753  39.2456493
  40.9978553  24.1642753  39.3366493  49.0578553  21.1532753  53.9736493
  48.5328553  21.6122753  54.4976493  48.6968553  20.3582753  53.9676493
  48.9268553  21.1032753  54.0496493  34.5648553  20.0012753  45.8776493
  34.6088553  20.3452753  45.0766493  35.3198553  20.2382753  46.2446493
  34.6828553  20.0872753  45.8136493  52.5268553  32.8622753  45.9626493
  52.8168553  33.1192753  45.1816493  53.2218553  32.9582753  46.4816493
  52.6728553  32.9142753  45.9236493  47.5498553  24.7222753  54.0496493
  47.6228553  24.8262753  54.9126493  46.9158553  25.2802753  53.8286493
  47.4668553  24.8202753  54.1446493  49.8178553  25.0412753  52.4146493
  50.1368553  25.8272753  52.6176493  49.4478553  24.7712753  53.1576493
  49.8108553  25.1172753  52.5546493  49.1318553  31.4652753  37.9446493
  49.4658553  30.6592753  37.9796493  48.3768553  31.3932753  38.3746493
  49.0698553  31.3352753  38.0136493  49.6138553  23.2992753  43.6036493
  48.8688553  22.9762753  43.9216493  49.6158553  24.1252753  43.8836493
  49.5038553  23.3732753  43.6916493  52.5158553  25.5832753  55.1496493
  52.4638553  25.2422753  54.3486493  53.2528553  26.0502753  55.1276493
  52.6168553  25.6022753  55.0276493  52.0538553  29.2592753  51.3556493
  52.6818553  28.7102753  51.0996493  51.9928553  29.8242753  50.6936493
  52.1378553  29.2622753  51.2196493  46.5058553  29.3402753  37.3476493
  47.1898553  28.8262753  37.1786493  46.0888553  29.3862753  36.5826493
  46.5448553  29.2712753  37.2096493  41.1878553  30.4902753  48.6516493
  40.8898553  31.0822753  49.2186493  41.2428553  30.9322753  47.9026493
  41.1518553  30.6432753  48.6246493  48.5258553  19.6292753  51.0646493
  49.2698553  20.0812753  51.0016493  47.9598553  20.0992753  50.5956493
  48.5528553  19.7662753  50.9866493  43.7038553  26.9132753  48.1426493
  44.1798553  27.2872753  48.7706493  42.8808553  27.0472753  48.4016493
  43.6528553  26.9882753  48.2736493  40.4138553  22.5162753  50.8836493
  40.5748553  21.7722753  51.3106493  40.3688553  22.2672753  50.0486493
  40.4308553  22.3692753  50.8236493  42.9678553  34.3062753  43.3706493
  43.5138553  34.9852753  43.4246493  42.6178553  34.3882753  42.5756493
  42.9968553  34.4192753  43.2606493  49.8108553  17.6092753  48.7346493
  49.5308553  18.4342753  48.6906493  50.5268553  17.6622753  49.2306493
  49.8758553  17.7392753  48.8016493  42.1658553  18.3242753  50.7636493
  42.8708553  18.6442753  50.3616493  42.4068553  17.5172753  50.9906493
  42.3048553  18.2522753  50.7376493  41.1508553  32.5342753  46.7596493
  40.5268553  33.1162753  46.5776493  41.3988553  32.2482753  45.9736493
  41.0948553  32.5782753  46.6166493  45.4598553  29.1682753  53.7486493
  46.2168553  29.4542753  53.4226493  44.9128553  29.2202753  53.0706493
  45.4908553  29.2182753  53.5996493  49.3688553  31.7182753  52.2526493
  49.7148553  31.9882753  53.0066493  49.6628553  32.3002753  51.6726493
  49.4638553  31.8442753  52.2786493  51.2318553  23.8642753  37.5916493
  51.6098553  24.5412753  37.1916493  50.3898553  24.0882753  37.6226493
  51.1628553  23.9972753  37.5366493  42.7448553  27.3102753  36.6746493
  41.9398553  27.1332753  36.3896493  42.7118553  28.1612753  36.8666493
  42.6208553  27.4092753  36.6616493  38.6748553  23.3772753  46.8246493
  39.1148553  23.2742753  46.0786493  39.2198553  23.0642753  47.4296493
  38.8198553  23.3162753  46.8036493  46.6908553  22.4792753  52.4166493
  46.0428553  22.9492753  52.7646493  47.2558553  22.3902753  53.0756493
  46.6788553  22.5352753  52.5656493  46.3788553  24.0162753  48.7146493
  46.6808553  24.4362753  49.4176493  46.4148553  23.1762753  48.9466493
  46.4288553  23.9542753  48.8526493  43.8038553  34.1832753  52.6396493
  44.2818553  33.5832753  52.2236493  43.4528553  33.7402753  53.3046493
  43.8228553  34.0292753  52.6766493  48.9268553  23.4632753  40.9666493
  49.1338553  23.2622753  41.7906493  49.6828553  23.7312753  40.6246493
  49.0688553  23.4732753  41.0376493  42.2218553  18.3622753  46.8716493
  41.3958553  18.2132753  47.1086493  42.1818553  18.3972753  46.0006493
  42.0938553  18.3452753  46.7776493  49.9488553  19.5462753  42.4406493
  49.2348553  19.0752753  42.6116493  49.7868553  19.8872753  41.6546493
  49.8198553  19.5272753  42.3496493  50.3918553  27.4902753  40.8206493
  50.8678553  26.7612753  40.7726493  49.5708553  27.2042753  40.7446493
  50.3408553  27.3402753  40.8016493  43.8628553  29.4022753  51.6596493
  43.0678553  29.3382753  52.0106493  43.9338553  30.2492753  51.4646493
  43.7558553  29.5172753  51.6826493  34.7868553  18.7602753  52.9066493
  34.6468553  19.5552753  52.5756493  34.0008553  18.5172753  53.1956493
  34.6498553  18.8422753  52.9006493  39.6928553  35.6092753  46.9766493
  39.7038553  35.6682753  47.8466493  39.2678553  34.8622753  46.8266493
  39.6318553  35.5072753  47.0826493  37.8508553  21.5042753  40.1316493
  37.9768553  21.1752753  39.3336493  37.0388553  21.2552753  40.3306493
  37.7498553  21.4192753  40.0436493  46.6078553  28.6572753  43.1756493
  46.6838553  28.9982753  43.9746493  46.7768553  27.8102753  43.2966493
  46.6438553  28.5822753  43.3116493  44.1298553  27.9312753  42.7406493
  43.8318553  27.6162753  43.4976493  44.8248553  28.4042753  42.9756493
  44.1888553  27.9542753  42.8876493  44.3518553  32.0492753  50.7676493
  45.0388553  31.9352753  51.2926493  44.4858553  32.8402753  50.4236493
  44.4728553  32.1492753  50.7946493  52.5278553  24.6582753  52.5786493
  51.6728553  24.5362753  52.7046493  52.6808553  24.2632753  51.8156493
  52.4238553  24.5812753  52.4846493  47.0408553  25.3232753  51.1546493
  46.7858553  24.6042753  51.5766493  47.8618553  25.4392753  51.4246493
  47.1248553  25.2342753  51.2566493  44.9748553  26.5132753  54.3416493
  45.2978553  27.1992753  53.9096493  44.2708553  26.8362753  54.7436493
  44.9178553  26.6622753  54.3366493  48.0588553  34.8872753  45.2706493
  47.6078553  35.5302753  45.6496493  48.7668553  34.8082753  45.7756493
  48.0968553  34.9702753  45.4016493  44.7598553  29.9772753  48.2006493
  44.0658553  30.3792753  48.5436493  45.4368553  30.4102753  48.5396493
  44.7568553  30.1002753  48.3016493  50.1368553  32.5702753  54.7806493
  50.9128553  32.1802753  54.8636493  49.6678553  32.2342753  55.4356493
  50.1818553  32.4632753  54.8896493  37.8278553  23.5152753  50.5476493
  38.2028553  24.1342753  50.0606493  38.5018553  23.0412753  50.8326493
  37.9828553  23.5372753  50.5176493  35.6028553  21.9632753  49.8226493
  35.6798553  21.7942753  48.9696493  36.3488553  22.3692753  50.0196493
  35.7238553  21.9982753  49.7256493  51.1618553  24.6032753  40.2626493
  51.2648553  24.5452753  39.3986493  51.9028553  24.2712753  40.5806493
  51.2868553  24.5462753  40.1816493  38.1568553  19.3732753  52.2336493
  38.0758553  18.5292753  52.4396493  37.8428553  19.4172753  51.4206493
  38.0988553  19.2552753  52.1436493  45.0818553  31.5682753  41.3696493
  44.8768553  32.4012753  41.2106493  44.3068553  31.1862753  41.4916493
  44.9368553  31.6352753  41.3646493  50.2638553  24.7492753  49.6186493
  50.2618553  23.8862753  49.7426493  50.3308553  25.0732753  50.4256493
  50.2738553  24.6692753  49.7556493  34.9998553  27.1892753  50.0466493
  35.3198553  27.4082753  49.2656493  34.8998553  26.3242753  49.9916493
  35.0318553  27.0942753  49.9236493  46.1428553  19.5492753  53.4006493
  46.2348553  20.2612753  53.8946493  45.5058553  19.1042753  53.7976493
  46.0618553  19.5882753  53.5326493  45.1368553  19.7392753  44.2546493
  44.4368553  20.2572753  44.1986493  45.1748553  19.3592753  43.4706493
  45.0388553  19.7602753  44.1306493  40.4438553  31.8302753  37.7786493
  40.8848553  31.9102753  38.5266493  39.6388553  31.6142753  38.0366493
  40.3898553  31.8102753  37.9276493  48.7348553  20.2552753  47.0546493
  49.5898553  20.3542753  47.1996493  48.3658553  20.8082753  47.6196493
  48.8068553  20.3522753  47.1596493  39.7628553  26.4812753  51.4316493
  39.3668553  27.2552753  51.5066493  39.3568553  26.1082753  50.7556493
  39.6448553  26.5402753  51.3426493  49.0388553  25.5352753  45.5456493
  49.7048553  26.0762753  45.7056493  48.6938553  25.8462753  44.8066493
  49.0858553  25.6612753  45.4606493  49.3518553  33.6012753  41.3526493
  49.1778553  32.9472753  41.9026493  50.0648553  33.3302753  40.9296493
  49.4318553  33.4642753  41.3716493  37.7728553  30.9002753  38.3796493
  37.5288553  30.5932753  39.1596493  37.7398553  30.1972753  37.8636493
  37.7318553  30.7512753  38.4186493  40.1918553  19.4582753  48.8816493
  39.3278553  19.5422753  48.9616493  40.4118553  18.9442753  49.5506493
  40.0968553  19.3952753  48.9926493  52.2098553  18.0932753  50.2106493
  52.1578553  18.0492753  51.0806493  52.8968553  17.5902753  50.0206493
  52.3038553  18.0132753  50.3106493  44.2948553  20.2062753  47.2556493
  43.5578553  19.7522753  47.3686493  44.8658553  19.8042753  47.7786493
  44.2698553  20.0792753  47.3496493  47.0268553  31.0542753  49.0436493
  47.2328553  31.3552753  49.8356493  46.9658553  31.7762753  48.5586493
  47.0478553  31.2052753  49.0886493  46.5608553  35.2682753  53.2896493
  45.8078553  35.2502753  52.8486493  46.7288553  36.1202753  53.3736493
  46.4748553  35.3912753  53.2366493  41.7978553  24.5352753  52.4596493
  41.4758553  23.9592753  51.8896493  41.4388553  25.2902753  52.2136493
  41.6978553  24.5612753  52.3396493  42.5938553  17.7872753  37.0866493
  42.6718553  18.0342753  36.2536493  41.8508553  18.1642753  37.3446493
  42.4958553  17.8792753  37.0016493  51.8388553  29.6932753  48.5016493
  51.8068553  28.8312753  48.3666493  51.1458553  29.9952753  48.0676493
  51.7318553  29.6102753  48.4176493  49.9438553  32.9532753  47.2986493
  50.4708553  32.8702753  46.6076493  49.5528553  32.1752753  47.3526493
  49.9638553  32.8262753  47.2046493  37.4118553  19.5412753  49.5296493
  37.0688553  18.7742753  49.2956493  36.7168553  20.0652753  49.5936493
  37.2588553  19.5052753  49.5046493  46.4578553  18.3972753  46.5066493
  47.1278553  18.9412753  46.6336493  45.9548553  18.8212753  45.9336493
  46.4828553  18.5402753  46.4406493  45.8168553  24.2052753  43.9996493
  46.3678553  23.5982753  44.2996493  45.3918553  24.4682753  44.7146493
  45.8358553  24.1542753  44.1486493  36.0648553  22.8552753  43.4856493
  35.6968553  23.1572753  44.2166493  36.5988553  22.2262753  43.7696493
  36.0888553  22.8072753  43.6356493  47.7868553  26.0362753  40.5616493
  47.8548553  25.1862753  40.7426493  46.9638553  26.1222753  40.2836493
  47.6748553  25.9232753  40.5476493  37.5388553  34.5302753  39.7716493
  37.3938553  34.6862753  38.9256493  38.4048553  34.6092753  39.8496493
  37.6458553  34.5652753  39.6586493  41.7058553  26.9272753  39.4996493
  41.8058553  27.0662753  38.6446493  42.5238553  26.8672753  39.7956493
  41.8408553  26.9382753  39.4166493  50.8658553  34.9912753  36.9796493
  51.5028553  34.8572753  37.5606493  50.5248553  34.1972753  36.8626493
  50.9098553  34.8542753  37.0476493  51.0608553  27.4092753  53.7126493
  51.6948553  27.2392753  54.2866493  51.4778553  27.8122753  53.0606493
  51.2158553  27.4442753  53.7016493  46.9408553  31.2562753  39.3016493
  46.6898553  31.1282753  40.1276493  46.6238553  30.5612753  38.8806493
  46.8568553  31.1352753  39.3616493  51.6858553  21.9732753  54.4506493
  51.4898553  22.6172753  55.0056493  50.9638553  21.4832753  54.4426493
  51.5508553  21.9962753  54.5316493  51.5848553  22.9142753  47.4216493
  50.7518553  23.1642753  47.3496493  51.5288553  22.0742753  47.6506493
  51.4538553  22.8272753  47.4446493  40.8448553  19.9022753  52.6156493
  41.0788553  19.3262753  52.0026493  40.0028553  19.7212753  52.7566493
  40.7548553  19.7902753  52.5456493  48.4718553  27.5202753  55.0676493
  49.3428553  27.4842753  55.0316493  48.2528553  27.9402753  54.3356493
  48.5688553  27.5762753  54.9546493  38.2258553  33.3452753  46.2486493
  38.1468553  32.5352753  45.9326493  37.7818553  33.8322753  45.6766493
  38.1488553  33.2972753  46.1176493  43.8268553  29.4642753  38.7316493
  44.5438553  29.1172753  38.3756493  43.7928553  30.2642753  38.3836493
  43.9278553  29.5312753  38.6276493  45.2358553  18.1052753  22.9704083
  44.9908553  18.5932753  22.2904083  46.0988553  18.0322753  22.8704083
  45.3268553  18.1662753  22.8554083  45.0448553  25.0212753  27.6414083
  44.5208553  25.6172753  28.0044083  45.4418553  24.6532753  28.3254083
  45.0258553  25.0552753  27.7964083  34.9138553  29.1612753  23.0974083
  34.4728553  29.2792753  23.8404083  34.6308553  28.3862753  22.8124083
  34.8068553  29.0642753  23.1654083  51.1888553  32.4622753  20.6124083
  51.8898553  31.9432753  20.6084083  50.6018553  32.0172753  20.1434083
  51.2058553  32.3192753  20.5424083  34.6568553  22.9532753  19.6044083
  33.8788553  23.1152753  19.2444083  34.6958553  22.0822753  19.6264083
  34.5478553  22.8482753  19.5544083  37.7958553  28.2162753  18.2764083
  37.4038553  27.8452753  17.5904083  37.7158553  27.6182753  18.9054083
  37.7258553  28.0732753  18.2674083  47.7158553  26.0882753  24.3174083
  47.7958553  26.0922753  23.4484083  47.1318553  25.4562753  24.4664083
  47.6408553  25.9952753  24.2114083  37.4228553  29.8572753  22.1764083
  38.0308553  29.6872753  22.7794083  36.6718553  29.7172753  22.5974083
  37.4018553  29.8112753  22.3274083  41.7048553  19.1922753  22.1254083
  41.6348553  19.8692753  21.5794083  42.4458553  18.8042753  21.8764083
  41.8038553  19.2352753  22.0074083  36.3138553  32.9482753  18.2534083
  36.7808553  33.0322753  17.5214083  36.7688553  32.3702753  18.7224083
  36.4498553  32.8752753  18.2144083  36.2998553  26.4172753  23.5544083
  35.8378553  26.0252753  22.9274083  36.9998553  25.9042753  23.6464083
  36.3348553  26.2842753  23.4754083  40.8078553  22.0272753  28.9014083
  41.4858553  22.0452753  28.3524083  40.7628553  21.1912753  29.1464083
  40.9008553  21.9062753  28.8564083  38.3008553  24.5172753  23.5774083
  39.1178553  24.3302753  23.8204083  37.8238553  23.9032753  23.9734083
  38.3508553  24.3992753  23.6724083  42.5048553  30.4982753  26.1874083
  42.8528553  29.6992753  26.2174083  43.1698553  31.0022753  25.9324083
  42.6548553  30.4542753  26.1544083  42.5618553  29.9472753  22.3984083
  42.8928553  29.3032753  22.8844083  42.8018553  29.7362753  21.5874083
  42.6458553  29.8212753  22.3504083  44.5298553  24.0782753  33.7374083
  43.6818553  23.9792753  33.5594083  44.5588553  24.8232753  34.1914083
  44.4088553  24.1742753  33.7784083  38.8978553  19.6112753  22.8434083
  38.6018553  20.1122753  22.1934083  39.7648553  19.6892753  22.7864083
  38.9818553  19.6972753  22.7394083  49.0878553  17.0382753  32.8514083
  48.9298553  17.8072753  32.4694083  48.3158553  16.8182753  33.1954083
  48.9498553  17.1192753  32.8464083  41.8768553  18.7532753  25.0664083
  41.9498553  19.6132753  25.1954083  41.8388553  18.6782753  24.1984083
  41.8818553  18.8692753  24.9574083  46.5498553  21.6792753  17.3654083
  46.0998553  22.3602753  17.6724083  46.6638553  21.1752753  18.0684083
  46.5008553  21.7052753  17.5144083  34.7558553  24.1782753  26.5674083
  34.4998553  25.0092753  26.4924083  34.0918553  23.7952753  26.9844083
  34.6198553  24.2442753  26.6184083  34.6658553  33.8882753  24.4674083
  34.0738553  34.4462753  24.1544083  35.0918553  33.6192753  23.7554083
  34.6418553  33.9302753  24.3164083  40.5058553  31.7322753  21.9474083
  39.9268553  31.4572753  22.5394083  41.1298553  31.1232753  21.9724083
  40.5128553  31.6022753  22.0384083  46.6488553  34.0202753  19.4694083
  47.3758553  34.4922753  19.5714083  46.8778553  33.2262753  19.7494083
  46.7908553  33.9732753  19.5264083  44.8168553  34.4122753  21.4594083
  45.0308553  34.9392753  22.1214083  45.5838553  34.2382753  21.0804083
  44.9618553  34.4642753  21.5014083  37.7848553  18.9952753  27.0584083
  37.2638553  18.3672753  26.7504083  38.3758553  18.5582753  27.5294083
  37.7958553  18.8372753  27.0824083  41.0908553  21.1282753  36.3564083
  41.2078553  20.6742753  35.6204083  41.3788553  21.9262753  36.1534083
  41.1508553  21.1792753  36.2174083  36.2108553  32.5582753  22.3984083
  36.8668553  31.9832753  22.4134083  36.5998553  33.3072753  22.1774083
  36.3658553  32.5832753  22.3684083  51.9438553  21.6522753  23.6604083
  51.5978553  22.3302753  24.0864083  51.3078553  21.0542753  23.6764083
  51.7988553  21.6642753  23.7254083  47.2558553  34.4222753  29.7644083
  47.9998553  34.8782753  29.7544083  47.1348553  34.2082753  28.9274083
  47.3478553  34.4582753  29.6394083  37.0288553  31.0452753  25.8984083
  37.4518553  30.6892753  25.2244083  37.3528553  30.6232753  26.5904083
  37.1388553  30.9302753  25.9014083  40.2598553  33.8972753  25.1944083
  41.1038553  34.0012753  24.9994083  39.9628553  34.7152753  25.2624083
  40.3408553  34.0332753  25.1754083  43.4728553  18.3682753  34.5084083
  43.6508553  17.5592753  34.2334083  43.3298553  18.8092753  33.7694083
  43.4778553  18.3142753  34.3584083  44.0668553  23.2942753  23.2814083
  44.3538553  23.0622753  22.4914083  44.7988553  23.3732753  23.7504083
  44.2168553  23.2712753  23.2344083  44.7888553  23.6332753  18.4024083
  45.0698553  24.4212753  18.6514083  44.0128553  23.7982753  18.0394083
  44.7158553  23.7742753  18.3854083  48.8298553  35.6072753  19.8694083
  49.4948553  35.4592753  19.3244083  49.1898553  35.5242753  20.6594083
  48.9818553  35.5732753  19.9054083  39.2578553  35.1162753  30.9344083
  39.5498553  35.0492753  31.7544083  38.6318553  34.5112753  30.8894083
  39.2088553  35.0172753  31.0494083  51.6188553  19.9752753  29.0294083
  52.3758553  20.0472753  28.6014083  51.6818553  19.2022753  29.4284083
  51.7398553  19.8722753  29.0244083  46.5098553  31.6072753  33.4684083
  46.4758553  31.9892753  34.2524083  47.3638553  31.5652753  33.2974083
  46.6308553  31.6572753  33.5594083  43.6478553  31.8042753  18.2184083
  43.4668553  32.3492753  18.8754083  44.4138553  32.0942753  17.9174083
  43.7338553  31.9282753  18.2714083  47.1548553  19.7002753  19.2724083
  47.6948553  19.0182753  19.3484083  47.2168553  20.0982753  20.0464083
  47.2438553  19.6582753  19.3984083  35.1088553  20.8682753  21.8414083
  34.9948553  20.0042753  21.8724083  34.6338553  21.1622753  22.5114083
  35.0218553  20.7842753  21.9444083  37.2508553  33.2782753  30.0564083
  36.5528553  32.7702753  30.1824083  37.5108553  33.0732753  29.2484083
  37.1858553  33.1732753  29.9554083  44.4128553  22.0762753  20.5864083
  43.9048553  21.4142753  20.3324083  44.4648553  22.5802753  19.8764083
  44.3458553  22.0532753  20.4444083  44.9618553  34.7712753  30.9664083
  45.7298553  34.6912753  30.5604083  44.3788553  34.6502753  30.3284083
  44.9888553  34.7412753  30.8124083  44.4128553  19.0172753  20.4774083
  43.9578553  18.6152753  19.8514083  45.1858553  19.1722753  20.1024083
  44.4598553  18.9812753  20.3294083  51.2388553  35.3742753  23.8674083
  50.7838553  36.0912753  24.0684083  50.6248553  34.8032753  23.6254083
  51.0808553  35.3962753  23.8614083  43.0108553  21.3842753  24.9994083
  43.0848553  21.9522753  24.3414083  43.1318553  21.8762753  25.7094083
  43.0388553  21.5412753  25.0074083  48.2358553  31.2192753  23.4114083
  48.9368553  30.7372753  23.6004083  47.5758553  30.6502753  23.4564083
  48.2418553  31.0642753  23.4454083  37.6188553  17.2072753  23.3474083
  38.1548553  17.8952753  23.3374083  37.6218553  16.9332753  22.5194083
  37.6978553  17.2682753  23.2234083  46.8028553  21.5542753  30.8874083
  46.7078553  21.8732753  31.6934083  46.2098553  20.9152753  30.8494083
  46.7008553  21.5062753  31.0014083  47.5018553  28.2732753  29.0924083
  46.9878553  27.8612753  29.6634083  47.3758553  29.1172753  29.2734083
  47.4078553  28.3372753  29.2034083  48.0588553  17.4982753  23.7234083
  48.1078553  17.1802753  24.5344083  48.3818553  16.8542753  23.2304083
  48.1138553  17.3562753  23.7704083  50.5228553  21.7342753  32.0314083
  51.2948553  21.5092753  32.3684083  50.0478553  21.9512753  32.7314083
  50.5668553  21.7332753  32.1844083  38.0668553  21.0172753  25.0014083
  38.3388553  20.5872753  24.2934083  37.8908553  20.3812753  25.5724083
  38.0808553  20.8602753  24.9814083  50.7548553  28.7122753  19.2194083
  50.8738553  28.4252753  20.0344083  51.5618553  28.7332753  18.8894083
  50.8908553  28.6732753  19.2914083  37.8908553  28.4442753  24.5504083
  38.7418553  28.3642753  24.3774083  37.5338553  27.7622753  24.1384083
  37.9638553  28.3312753  24.4634083  36.6578553  35.1692753  25.7874083
  35.9848553  34.6712753  25.5424083  37.0608553  35.3542753  25.0364083
  36.6178553  35.1232753  25.6404083  36.2078553  22.1192753  28.0834083
  37.0508553  22.3392753  28.0404083  35.8188553  22.6922753  27.5524083
  36.2748553  22.2362753  27.9984083  52.9888553  33.2212753  33.4734083
  52.3068553  33.5312753  33.0264083  52.6198553  32.7632753  34.1184083
  52.8328553  33.1992753  33.5024083  48.6498553  25.2492753  18.8044083
  48.4298553  25.9802753  18.3824083  48.2018553  25.3002753  19.5514083
  48.5508553  25.3642753  18.8524083  40.2588553  28.4512753  22.7854083
  40.9718553  28.9462753  22.8754083  40.4808553  27.8842753  22.1594083
  40.3968553  28.4402753  22.7064083  52.8368553  20.1102753  18.2574083
  52.1748553  19.5422753  18.2804083  52.6438553  20.6222753  17.5774083
  52.7108553  20.1022753  18.1604083  42.0618553  23.8042753  36.2014083
  41.5778553  24.3812753  36.6434083  42.0338553  24.0992753  35.3804083
  41.9858553  23.9332753  36.1454083  53.1598553  24.4882753  30.8134083
  53.3748553  23.6882753  30.5374083  52.3098553  24.5482753  30.6244083
  53.0658553  24.3792753  30.7444083  34.4808553  26.7782753  21.2084083
  34.2958553  25.9392753  21.3604083  35.1398553  26.7422753  20.6384083
  34.5508553  26.6492753  21.1464083  50.8388553  19.6682753  20.5364083
  51.5848553  19.2612753  20.7354083  51.1018553  20.3832753  20.1114083
  50.9878553  19.7142753  20.5034083  44.7818553  32.1542753  25.1124083
  44.2588553  32.7882753  24.8194083  45.0918553  31.7902753  24.3834083
  44.7498553  32.1942753  24.9614083  34.6528553  30.9422753  20.7834083
  35.2048553  31.5112753  21.1474083  34.4208553  30.4272753  21.4484083
  34.6998553  30.9502753  20.9354083  47.2928553  21.9562753  25.6094083
  47.6368553  22.1082753  26.3964083  46.8398553  21.2182753  25.7224083
  47.2768553  21.8692753  25.7424083  34.4828553  29.3912753  18.4114083
  35.2388553  28.9592753  18.4694083  34.4978553  29.9232753  19.1024083
  34.5968553  29.4062753  18.5224083  35.4228553  27.6122753  26.4164083
  35.8538553  27.4832753  25.6694083  35.2178553  28.4602753  26.3904083
  35.4558553  27.7182753  26.3024083  41.7688553  21.1762753  20.0664083
  41.7668553  21.0592753  19.2014083  41.5878553  22.0242753  20.1584083
  41.7418553  21.2842753  19.9524083  50.8228553  33.6032753  31.5634083
  50.1518553  34.1172753  31.7814083  50.8858553  33.7032753  30.6994083
  50.7328553  33.6942753  31.4684083  39.5068553  31.1282753  24.6984083
  39.6328553  31.9712753  24.8854083  40.1748553  30.7292753  25.0944083
  39.6248553  31.1942753  24.7844083  38.1218553  24.0082753  19.7004083
  37.9938553  23.5602753  20.4384083  37.5398553  23.6662753  19.1484083
  38.0168553  23.8912753  19.7284083  38.2888553  25.8382753  26.2994083
  37.5078553  25.7792753  25.9164083  38.3608553  25.0862753  26.7364083
  38.1838553  25.7192753  26.3074083  48.6138553  23.2882753  28.1634083
  47.9518553  23.6162753  28.6264083  48.8008553  23.9222753  27.5944083
  48.5438553  23.4302753  28.1474083  42.8188553  34.3522753  29.1594083
  42.5418553  33.7112753  28.6364083  42.6108553  35.0782753  28.7214083
  42.7478553  34.3652753  29.0174083  45.2588553  19.1942753  31.5924083
  45.4078553  18.3692753  31.3494083  45.6378553  19.2492753  32.3764083
  45.3368553  19.0802753  31.6724083  46.8068553  21.2572753  21.6744083
  47.2968553  21.9742753  21.5974083  46.0168553  21.5182753  21.4114083
  46.7628553  21.4012753  21.6244083  48.1208553  29.1352753  33.5844083
  48.6048553  29.8532753  33.6824083  48.5148553  28.7082753  32.9334083
  48.2508553  29.1782753  33.5024083  43.3888553  22.7272753  27.3994083
  43.8688553  23.4262753  27.6074083  43.7618553  22.0802753  27.8504083
  43.5148553  22.7352753  27.4964083  45.5778553  25.8962753  19.6734083
  45.5698553  26.6182753  19.1834083  44.9388553  26.0312753  20.2504083
  45.4828553  26.0232753  19.6864083  50.5498553  29.7662753  23.6544083
  50.9058553  29.4162753  24.3694083  50.5418553  29.1052753  23.0844083
  50.6018553  29.6162753  23.6754083  46.5948553  32.8322753  27.4984083
  45.9918553  32.5362753  26.9414083  47.1398553  33.2842753  26.9894083
  46.5858553  32.8552753  27.3404083  46.6078553  29.6832753  26.8984083
  45.8108553  29.9072753  27.1724083  46.8658553  29.0892753  27.4834083
  46.5278553  29.6282753  27.0254083  40.4998553  34.4952753  21.3464083
  40.3528553  33.7192753  21.7174083  41.1888553  34.3482753  20.8314083
  40.5798553  34.3582753  21.3254083  40.1708553  18.2382753  19.3344083
  40.2678553  18.1312753  20.1954083  39.4628553  18.7442753  19.2694083
  40.0808553  18.2972753  19.4524083  42.7918553  34.0112753  19.7484083
  43.4138553  34.1742753  20.3384083  42.8278553  34.7022753  19.2164083
  42.8888553  34.1372753  19.7574083  49.8678553  27.6812753  31.7444083
  49.9228553  27.8062753  30.8824083  50.6208553  28.0012753  32.0464083
  49.9868553  27.7462753  31.6614083  46.0588553  33.0302753  36.0214083
  46.2228553  33.3132753  36.8304083  46.3218553  33.6912753  35.5164083
  46.1218553  33.1702753  36.0664083  50.8998553  17.9792753  34.7314083
  50.2628553  17.5792753  34.2894083  50.9258553  17.5482753  35.4894083
  50.8098553  17.8572753  34.7774083  37.2928553  26.5452753  20.5774083
  37.6168553  25.7662753  20.3554083  37.9388553  26.9132753  21.0324083
  37.4358553  26.4842753  20.6114083  45.5988553  27.4872753  31.3444083
  45.4438553  28.0972753  31.9484083  46.1328553  26.9292753  31.7504083
  45.6548553  27.4952753  31.4934083  34.2898553  18.2062753  21.5454083
  34.4188553  17.4982753  21.0534083  33.9228553  17.8882753  22.2704083
  34.2548553  18.0542753  21.5804083  43.9828553  25.8872753  22.0024083
  44.0418553  26.5372753  22.5814083  43.7938553  25.1912753  22.4934083
  43.9638553  25.8802753  22.1604083  49.2088553  30.2162753  27.8714083
  48.7298553  30.5142753  27.2054083  48.8528553  29.4402753  28.0494083
  49.0858553  30.1452753  27.7994083  38.4788553  20.4042753  18.5144083
  37.9678553  20.4572753  17.8084083  39.2628553  20.6442753  18.2184083
  38.5188553  20.4472753  18.3664083  43.2058553  27.9342753  26.4334083
  42.3588553  27.7402753  26.5144083  43.5298553  27.7692753  27.2264083
  43.1278553  27.8812753  26.5624083  39.9578553  34.6642753  17.3194083
  40.3968553  33.9672753  17.6074083  40.1648553  35.2882753  17.8924083
  40.0538553  34.6532753  17.4464083  40.2838553  22.7982753  25.4844083
  41.1298553  22.6082753  25.5824083  39.9138553  22.0212753  25.3464083
  40.3538553  22.6552753  25.4784083  52.9008553  34.3822753  19.8114083
  53.5948553  33.9152753  19.5634083  52.3618553  33.7842753  20.1484083
  52.9238553  34.2242753  19.8244083  35.1048553  24.1362753  22.1394083
  35.5938553  23.8442753  22.8004083  35.2338553  23.5432753  21.5124083
  35.1958553  24.0052753  22.1444083  39.6298553  25.5702753  17.6254083
  39.0198553  25.1652753  18.0994083  39.2438553  25.6882753  16.8524083
  39.4828553  25.5272753  17.5814083  51.3958553  27.2292753  26.4274083
  51.1098553  27.6302753  27.1474083  52.2558553  27.1672753  26.5544083
  51.4808553  27.2792753  26.5524083  41.0848553  24.0312753  20.3354083
  41.3568553  24.8572753  20.4024083  40.2218553  24.1062753  20.2394083
  40.9978553  24.1642753  20.3304083  49.0578553  21.1532753  34.9674083
  48.5328553  21.6122753  35.4914083  48.6968553  20.3582753  34.9614083
  48.9268553  21.1032753  35.0434083  52.5268553  32.8622753  26.9564083
  52.8168553  33.1192753  26.1754083  53.2218553  32.9582753  27.4754083
  52.6728553  32.9142753  26.9174083  47.5498553  24.7222753  35.0434083
  47.6228553  24.8262753  35.9064083  46.9158553  25.2802753  34.8224083
  47.4668553  24.8202753  35.1384083  49.8178553  25.0412753  33.4084083
  50.1368553  25.8272753  33.6114083  49.4478553  24.7712753  34.1514083
  49.8108553  25.1172753  33.5484083  49.1318553  31.4652753  18.9384083
  49.4658553  30.6592753  18.9734083  48.3768553  31.3932753  19.3684083
  49.0698553  31.3352753  19.0074083  49.6138553  23.2992753  24.5974083
  48.8688553  22.9762753  24.9154083  49.6158553  24.1252753  24.8774083
  49.5038553  23.3732753  24.6854083  52.5158553  25.5832753  36.1434083
  52.4638553  25.2422753  35.3424083  53.2528553  26.0502753  36.1214083
  52.6168553  25.6022753  36.0214083  52.0538553  29.2592753  32.3494083
  52.6818553  28.7102753  32.0934083  51.9928553  29.8242753  31.6874083
  52.1378553  29.2622753  32.2134083  46.5058553  29.3402753  18.3414083
  47.1898553  28.8262753  18.1724083  46.0888553  29.3862753  17.5764083
  46.5448553  29.2712753  18.2034083  48.5258553  19.6292753  32.0584083
  49.2698553  20.0812753  31.9954083  47.9598553  20.0992753  31.5894083
  48.5528553  19.7662753  31.9804083  43.7038553  26.9132753  29.1364083
  44.1798553  27.2872753  29.7644083  42.8808553  27.0472753  29.3954083
  43.6528553  26.9882753  29.2674083  40.4138553  22.5162753  31.8774083
  40.5748553  21.7722753  32.3044083  40.3688553  22.2672753  31.0424083
  40.4308553  22.3692753  31.8174083  42.9678553  34.3062753  24.3644083
  43.5138553  34.9852753  24.4184083  42.6178553  34.3882753  23.5694083
  42.9968553  34.4192753  24.2544083  49.8108553  17.6092753  29.7284083
  49.5308553  18.4342753  29.6844083  50.5268553  17.6622753  30.2244083
  49.8758553  17.7392753  29.7954083  42.1658553  18.3242753  31.7574083
  42.8708553  18.6442753  31.3554083  42.4068553  17.5172753  31.9844083
  42.3048553  18.2522753  31.7314083  41.1508553  32.5342753  27.7534083
  40.5268553  33.1162753  27.5714083  41.3988553  32.2482753  26.9674083
  41.0948553  32.5782753  27.6104083  45.4598553  29.1682753  34.7424083
  46.2168553  29.4542753  34.4164083  44.9128553  29.2202753  34.0644083
  45.4908553  29.2182753  34.5934083  49.3688553  31.7182753  33.2464083
  49.7148553  31.9882753  34.0004083  49.6628553  32.3002753  32.6664083
  49.4638553  31.8442753  33.2724083  51.2318553  23.8642753  18.5854083
  51.6098553  24.5412753  18.1854083  50.3898553  24.0882753  18.6164083
  51.1628553  23.9972753  18.5304083  42.7448553  27.3102753  17.6684083
  41.9398553  27.1332753  17.3834083  42.7118553  28.1612753  17.8604083
  42.6208553  27.4092753  17.6554083  38.6748553  23.3772753  27.8184083
  39.1148553  23.2742753  27.0724083  39.2198553  23.0642753  28.4234083
  38.8198553  23.3162753  27.7974083  46.3788553  24.0162753  29.7084083
  46.6808553  24.4362753  30.4114083  46.4148553  23.1762753  29.9404083
  46.4288553  23.9542753  29.8464083  43.8038553  34.1832753  33.6334083
  44.2818553  33.5832753  33.2174083  43.4528553  33.7402753  34.2984083
  43.8228553  34.0292753  33.6704083  48.9268553  23.4632753  21.9604083
  49.1338553  23.2622753  22.7844083  49.6828553  23.7312753  21.6184083
  49.0688553  23.4732753  22.0314083  42.2218553  18.3622753  27.8654083
  41.3958553  18.2132753  28.1024083  42.1818553  18.3972753  26.9944083
  42.0938553  18.3452753  27.7714083  49.9488553  19.5462753  23.4344083
  49.2348553  19.0752753  23.6054083  49.7868553  19.8872753  22.6484083
  49.8198553  19.5272753  23.3434083  50.3918553  27.4902753  21.8144083
  50.8678553  26.7612753  21.7664083  49.5708553  27.2042753  21.7384083
  50.3408553  27.3402753  21.7954083  43.8628553  29.4022753  32.6534083
  43.0678553  29.3382753  33.0044083  43.9338553  30.2492753  32.4584083
  43.7558553  29.5172753  32.6764083  34.7868553  18.7602753  33.9004083
  34.6468553  19.5552753  33.5694083  34.0008553  18.5172753  34.1894083
  34.6498553  18.8422753  33.8944083  39.6928553  35.6092753  27.9704083
  39.7038553  35.6682753  28.8404083  39.2678553  34.8622753  27.8204083
  39.6318553  35.5072753  28.0764083  37.8508553  21.5042753  21.1254083
  37.9768553  21.1752753  20.3274083  37.0388553  21.2552753  21.3244083
  37.7498553  21.4192753  21.0374083  46.6078553  28.6572753  24.1694083
  46.6838553  28.9982753  24.9684083  46.7768553  27.8102753  24.2904083
  46.6438553  28.5822753  24.3054083  44.1298553  27.9312753  23.7344083
  43.8318553  27.6162753  24.4914083  44.8248553  28.4042753  23.9694083
  44.1888553  27.9542753  23.8814083  44.3518553  32.0492753  31.7614083
  45.0388553  31.9352753  32.2864083  44.4858553  32.8402753  31.4174083
  44.4728553  32.1492753  31.7884083  52.5278553  24.6582753  33.5724083
  51.6728553  24.5362753  33.6984083  52.6808553  24.2632753  32.8094083
  52.4238553  24.5812753  33.4784083  47.0408553  25.3232753  32.1484083
  46.7858553  24.6042753  32.5704083  47.8618553  25.4392753  32.4184083
  47.1248553  25.2342753  32.2504083  36.4568553  35.1072753  33.4124083
  35.8028553  34.5382753  33.5104083  36.0818553  35.8802753  33.5634083
  36.3048553  35.1372753  33.4494083  44.9748553  26.5132753  35.3354083
  45.2978553  27.1992753  34.9034083  44.2708553  26.8362753  35.7374083
  44.9178553  26.6622753  35.3304083  48.0588553  34.8872753  26.2644083
  47.6078553  35.5302753  26.6434083  48.7668553  34.8082753  26.7694083
  48.0968553  34.9702753  26.3954083  44.7598553  29.9772753  29.1944083
  44.0658553  30.3792753  29.5374083  45.4368553  30.4102753  29.5334083
  44.7568553  30.1002753  29.2954083  50.1368553  32.5702753  35.7744083
  50.9128553  32.1802753  35.8574083  49.6678553  32.2342753  36.4294083
  50.1818553  32.4632753  35.8834083  51.1618553  24.6032753  21.2564083
  51.2648553  24.5452753  20.3924083  51.9028553  24.2712753  21.5744083
  51.2868553  24.5462753  21.1754083  38.1568553  19.3732753  33.2274083
  38.0758553  18.5292753  33.4334083  37.8428553  19.4172753  32.4144083
  38.0988553  19.2552753  33.1374083  45.0818553  31.5682753  22.3634083
  44.8768553  32.4012753  22.2044083  44.3068553  31.1862753  22.4854083
  44.9368553  31.6352753  22.3584083  50.2638553  24.7492753  30.6124083
  50.2618553  23.8862753  30.7364083  50.3308553  25.0732753  31.4194083
  50.2738553  24.6692753  30.7494083  36.4558553  23.1252753  17.6584083
  35.7838553  23.1392753  18.2144083  36.5508553  22.2772753  17.4744083
  36.3708553  23.0022753  17.7134083  46.1428553  19.5492753  34.3944083
  46.2348553  20.2612753  34.8884083  45.5058553  19.1042753  34.7914083
  46.0618553  19.5882753  34.5264083  45.1368553  19.7392753  25.2484083
  44.4368553  20.2572753  25.1924083  45.1748553  19.3592753  24.4644083
  45.0388553  19.7602753  25.1244083  40.4438553  31.8302753  18.7724083
  40.8848553  31.9102753  19.5204083  39.6388553  31.6142753  19.0304083
  40.3898553  31.8102753  18.9214083  48.7348553  20.2552753  28.0484083
  49.5898553  20.3542753  28.1934083  48.3658553  20.8082753  28.6134083
  48.8068553  20.3522753  28.1534083  49.0388553  25.5352753  26.5394083
  49.7048553  26.0762753  26.6994083  48.6938553  25.8462753  25.8004083
  49.0858553  25.6612753  26.4544083  49.3518553  33.6012753  22.3464083
  49.1778553  32.9472753  22.8964083  50.0648553  33.3302753  21.9234083
  49.4318553  33.4642753  22.3654083  37.7728553  30.9002753  19.3734083
  37.5288553  30.5932753  20.1534083  37.7398553  30.1972753  18.8574083
  37.7318553  30.7512753  19.4124083  40.5918553  29.1452753  18.1164083
  39.7738553  28.8772753  18.2564083  40.5638553  29.9972753  18.3014083
  40.4668553  29.2322753  18.1644083  40.1918553  19.4582753  29.8754083
  39.3278553  19.5422753  29.9554083  40.4118553  18.9442753  30.5444083
  40.0968553  19.3952753  29.9864083  52.2098553  18.0932753  31.2044083
  52.1578553  18.0492753  32.0744083  52.8968553  17.5902753  31.0144083
  52.3038553  18.0132753  31.3044083  44.2948553  20.2062753  28.2494083
  43.5578553  19.7522753  28.3624083  44.8658553  19.8042753  28.7724083
  44.2698553  20.0792753  28.3434083  47.0268553  31.0542753  30.0374083
  47.2328553  31.3552753  30.8294083  46.9658553  31.7762753  29.5524083
  47.0478553  31.2052753  30.0824083  46.5608553  35.2682753  34.2834083
  45.8078553  35.2502753  33.8424083  46.7288553  36.1202753  34.3674083
  46.4748553  35.3912753  34.2304083  42.5938553  17.7872753  18.0804083
  42.6718553  18.0342753  17.2474083  41.8508553  18.1642753  18.3384083
  42.4958553  17.8792753  17.9954083  51.8388553  29.6932753  29.4954083
  51.8068553  28.8312753  29.3604083  51.1458553  29.9952753  29.0614083
  51.7318553  29.6102753  29.4114083  40.2328553  34.8912753  33.7014083
  40.2738553  35.0172753  34.5644083  40.8838553  34.3312753  33.5454083
  40.3348553  34.8272753  33.8064083  49.9438553  32.9532753  28.2924083
  50.4708553  32.8702753  27.6014083  49.5528553  32.1752753  28.3464083
  49.9638553  32.8262753  28.1984083  37.4118553  19.5412753  30.5234083
  37.0688553  18.7742753  30.2894083  36.7168553  20.0652753  30.5874083
  37.2588553  19.5052753  30.4984083  46.4578553  18.3972753  27.5004083
  47.1278553  18.9412753  27.6274083  45.9548553  18.8212753  26.9274083
  46.4828553  18.5402753  27.4344083  37.8258553  33.2742753  35.0614083
  38.4208553  33.7052753  35.5334083  37.4618553  33.8982753  34.5724083
  37.8598553  33.4302753  35.0584083  45.8168553  24.2052753  24.9934083
  46.3678553  23.5982753  25.2934083  45.3918553  24.4682753  25.7084083
  45.8358553  24.1542753  25.1424083  36.0648553  22.8552753  24.4794083
  35.6968553  23.1572753  25.2104083  36.5988553  22.2262753  24.7634083
  36.0888553  22.8072753  24.6294083  35.7528553  31.2632753  31.9904083
  35.1788553  31.6792753  32.4994083  36.4858553  31.7282753  32.0854083
  35.7768553  31.3932753  32.0794083  47.7868553  26.0362753  21.5554083
  47.8548553  25.1862753  21.7364083  46.9638553  26.1222753  21.2774083
  47.6748553  25.9232753  21.5414083  37.5388553  34.5302753  20.7654083
  37.3938553  34.6862753  19.9194083  38.4048553  34.6092753  20.8434083
  37.6458553  34.5652753  20.6524083  41.7058553  26.9272753  20.4934083
  41.8058553  27.0662753  19.6384083  42.5238553  26.8672753  20.7894083
  41.8408553  26.9382753  20.4104083  50.8658553  34.9912753  17.9734083
  51.5028553  34.8572753  18.5544083  50.5248553  34.1972753  17.8564083
  50.9098553  34.8542753  18.0414083  51.0608553  27.4092753  34.7064083
  51.6948553  27.2392753  35.2804083  51.4778553  27.8122753  34.0544083
  51.2158553  27.4442753  34.6954083  46.9408553  31.2562753  20.2954083
  46.6898553  31.1282753  21.1214083  46.6238553  30.5612753  19.8744083
  46.8568553  31.1352753  20.3554083  51.6858553  21.9732753  35.4444083
  51.4898553  22.6172753  35.9994083  50.9638553  21.4832753  35.4364083
  51.5508553  21.9962753  35.5254083  51.5848553  22.9142753  28.4154083
  50.7518553  23.1642753  28.3434083  51.5288553  22.0742753  28.6444083
  51.4538553  22.8272753  28.4384083  40.8448553  19.9022753  33.6094083
  41.0788553  19.3262753  32.9964083  40.0028553  19.7212753  33.7504083
  40.7548553  19.7902753  33.5394083  48.4718553  27.5202753  36.0614083
  49.3428553  27.4842753  36.0254083  48.2528553  27.9402753  35.3294083
  48.5688553  27.5762753  35.9484083  38.2258553  33.3452753  27.2424083
  38.1468553  32.5352753  26.9264083  37.7818553  33.8322753  26.6704083
  38.1488553  33.2972753  27.1114083  43.8268553  29.4642753  19.7254083
  44.5438553  29.1172753  19.3694083  43.7928553  30.2642753  19.3774083
  43.9278553  29.5312753  19.6214083  45.2358553  18.1052753   3.9641673
  44.9908553  18.5932753   3.2841673  46.0988553  18.0322753   3.8641673
  45.3268553  18.1662753   3.8491673  45.0448553  25.0212753   8.6351673
  44.5208553  25.6172753   8.9981673  45.4418553  24.6532753   9.3191673
  45.0258553  25.0552753   8.7901673  34.9138553  29.1612753   4.0911673
  34.4728553  29.2792753   4.8341673  34.6308553  28.3862753   3.8061673
  34.8068553  29.0642753   4.1591673  47.7158553  26.0882753   5.3111673
  47.7958553  26.0922753   4.4421673  47.1318553  25.4562753   5.4601673
  47.6408553  25.9952753   5.2051673  37.4228553  29.8572753   3.1701673
  38.0308553  29.6872753   3.7731673  36.6718553  29.7172753   3.5911673
  37.4018553  29.8112753   3.3211673  41.7048553  19.1922753   3.1191673
  41.6348553  19.8692753   2.5731673  42.4458553  18.8042753   2.8701673
  41.8038553  19.2352753   3.0011673  34.8538553  31.8962753  10.3461673
  34.9828553  31.6162753  11.1621673  34.2438553  31.3552753  10.0371673
  34.7828553  31.7752753  10.4211673  41.4278553  29.4212753  15.4131673
  41.1918553  29.4182753  16.2531673  40.6798553  29.2732753  14.9891673
  41.2818553  29.3982753  15.4741673  36.2998553  26.4172753   4.5481673
  35.8378553  26.0252753   3.9211673  36.9998553  25.9042753   4.6401673
  36.3348553  26.2842753   4.4691673  40.8078553  22.0272753   9.8951673
  41.4858553  22.0452753   9.3461673  40.7628553  21.1912753  10.1401673
  40.9008553  21.9062753   9.8501673  41.4098553  32.6132753  12.6761673
  41.5478553  33.3732753  12.2691673  42.2008553  32.2482753  12.7031673
  41.5468553  32.6722753  12.6201673  38.3008553  24.5172753   4.5711673
  39.1178553  24.3302753   4.8141673  37.8238553  23.9032753   4.9671673
  38.3508553  24.3992753   4.6661673  42.5048553  30.4982753   7.1811673
  42.8528553  29.6992753   7.2111673  43.1698553  31.0022753   6.9261673
  42.6548553  30.4542753   7.1481673  42.5618553  29.9472753   3.3921673
  42.8928553  29.3032753   3.8781673  42.8018553  29.7362753   2.5811673
  42.6458553  29.8212753   3.3441673  44.5298553  24.0782753  14.7311673
  43.6818553  23.9792753  14.5531673  44.5588553  24.8232753  15.1851673
  44.4088553  24.1742753  14.7721673  38.8978553  19.6112753   3.8371673
  38.6018553  20.1122753   3.1871673  39.7648553  19.6892753   3.7801673
  38.9818553  19.6972753   3.7331673  49.0878553  17.0382753  13.8451673
  48.9298553  17.8072753  13.4631673  48.3158553  16.8182753  14.1891673
  48.9498553  17.1192753  13.8401673  41.8768553  18.7532753   6.0601673
  41.9498553  19.6132753   6.1891673  41.8388553  18.6782753   5.1921673
  41.8818553  18.8692753   5.9511673  34.7558553  24.1782753   7.5611673
  34.4998553  25.0092753   7.4861673  34.0918553  23.7952753   7.9781673
  34.6198553  24.2442753   7.6121673  34.6658553  33.8882753   5.4611673
  34.0738553  34.4462753   5.1481673  35.0918553  33.6192753   4.7491673
  34.6418553  33.9302753   5.3101673  40.5058553  31.7322753   2.9411673
  39.9268553  31.4572753   3.5331673  41.1298553  31.1232753   2.9661673
  40.5128553  31.6022753   3.0321673  44.8168553  34.4122753   2.4531673
  45.0308553  34.9392753   3.1151673  45.5838553  34.2382753   2.0741673
  44.9618553  34.4642753   2.4951673  37.7848553  18.9952753   8.0521673
  37.2638553  18.3672753   7.7441673  38.3758553  18.5582753   8.5231673
  37.7958553  18.8372753   8.0761673  41.0908553  21.1282753  17.3501673
  41.2078553  20.6742753  16.6141673  41.3788553  21.9262753  17.1471673
  41.1508553  21.1792753  17.2111673  36.2108553  32.5582753   3.3921673
  36.8668553  31.9832753   3.4071673  36.5998553  33.3072753   3.1711673
  36.3658553  32.5832753   3.3621673  51.9438553  21.6522753   4.6541673
  51.5978553  22.3302753   5.0801673  51.3078553  21.0542753   4.6701673
  51.7988553  21.6642753   4.7191673  47.2558553  34.4222753  10.7581673
  47.9998553  34.8782753  10.7481673  47.1348553  34.2082753   9.9211673
  47.3478553  34.4582753  10.6331673  36.8238553  20.7252753  16.3341673
  36.0458553  20.3352753  16.2621673  37.3148553  20.3132753  15.7431673
  36.7808553  20.6062753  16.2361673  37.0288553  31.0452753   6.8921673
  37.4518553  30.6892753   6.2181673  37.3528553  30.6232753   7.5841673
  37.1388553  30.9302753   6.8951673  40.2598553  33.8972753   6.1881673
  41.1038553  34.0012753   5.9931673  39.9628553  34.7152753   6.2561673
  40.3408553  34.0332753   6.1691673  43.4728553  18.3682753  15.5021673
  43.6508553  17.5592753  15.2271673  43.3298553  18.8092753  14.7631673
  43.4778553  18.3142753  15.3521673  44.0668553  23.2942753   4.2751673
  44.3538553  23.0622753   3.4851673  44.7988553  23.3732753   4.7441673
  44.2168553  23.2712753   4.2281673  39.2578553  35.1162753  11.9281673
  39.5498553  35.0492753  12.7481673  38.6318553  34.5112753  11.8831673
  39.2088553  35.0172753  12.0431673  51.6188553  19.9752753  10.0231673
  52.3758553  20.0472753   9.5951673  51.6818553  19.2022753  10.4221673
  51.7398553  19.8722753  10.0181673  34.1718553  21.2732753  13.9201673
  34.1678553  21.8602753  14.5661673  34.7658553  21.5852753  13.3631673
  34.2588553  21.4062753  13.9331673  46.5098553  31.6072753  14.4621673
  46.4758553  31.9892753  15.2461673  47.3638553  31.5652753  14.2911673
  46.6308553  31.6572753  14.5531673  35.1088553  20.8682753   2.8351673
  34.9948553  20.0042753   2.8661673  34.6338553  21.1622753   3.5051673
  35.0218553  20.7842753   2.9381673  37.2508553  33.2782753  11.0501673
  36.5528553  32.7702753  11.1761673  37.5108553  33.0732753  10.2421673
  37.1858553  33.1732753  10.9491673  44.9618553  34.7712753  11.9601673
  45.7298553  34.6912753  11.5541673  44.3788553  34.6502753  11.3221673
  44.9888553  34.7412753  11.8061673  51.2388553  35.3742753   4.8611673
  50.7838553  36.0912753   5.0621673  50.6248553  34.8032753   4.6191673
  51.0808553  35.3962753   4.8551673  43.0108553  21.3842753   5.9931673
  43.0848553  21.9522753   5.3351673  43.1318553  21.8762753   6.7031673
  43.0388553  21.5412753   6.0011673  48.2358553  31.2192753   4.4051673
  48.9368553  30.7372753   4.5941673  47.5758553  30.6502753   4.4501673
  48.2418553  31.0642753   4.4391673  38.6118553  32.1292753  13.6171673
  39.4528553  32.1922753  13.3951673  38.5748553  32.5262753  14.3931673
  38.7308553  32.1972753  13.6991673  37.6188553  17.2072753   4.3411673
  38.1548553  17.8952753   4.3311673  37.6218553  16.9332753   3.5131673
  37.6978553  17.2682753   4.2171673  40.5748553  27.6402753   8.3661673
  40.7468553  27.4302753   9.1951673  39.9198553  27.1062753   8.1501673
  40.5038553  27.5302753   8.4571673  46.8028553  21.5542753  11.8811673
  46.7078553  21.8732753  12.6871673  46.2098553  20.9152753  11.8431673
  46.7008553  21.5062753  11.9951673  41.3248553  27.5782753  10.9561673
  41.3778553  28.4252753  11.1581673  41.0398553  27.2082753  11.6931673
  41.2908553  27.6482753  11.0941673  47.5018553  28.2732753  10.0861673
  46.9878553  27.8612753  10.6571673  47.3758553  29.1172753  10.2671673
  47.4078553  28.3372753  10.1971673  48.0588553  17.4982753   4.7171673
  48.1078553  17.1802753   5.5281673  48.3818553  16.8542753   4.2241673
  48.1138553  17.3562753   4.7641673  50.5228553  21.7342753  13.0251673
  51.2948553  21.5092753  13.3621673  50.0478553  21.9512753  13.7251673
  50.5668553  21.7332753  13.1781673  38.0668553  21.0172753   5.9951673
  38.3388553  20.5872753   5.2871673  37.8908553  20.3812753   6.5661673
  38.0808553  20.8602753   5.9751673  37.8908553  28.4442753   5.5441673
  38.7418553  28.3642753   5.3711673  37.5338553  27.7622753   5.1321673
  37.9638553  28.3312753   5.4571673  36.6578553  35.1692753   6.7811673
  35.9848553  34.6712753   6.5361673  37.0608553  35.3542753   6.0301673
  36.6178553  35.1232753   6.6341673  36.2078553  22.1192753   9.0771673
  37.0508553  22.3392753   9.0341673  35.8188553  22.6922753   8.5461673
  36.2748553  22.2362753   8.9921673  52.9888553  33.2212753  14.4671673
  52.3068553  33.5312753  14.0201673  52.6198553  32.7632753  15.1121673
  52.8328553  33.1992753  14.4961673  40.2588553  28.4512753   3.7791673
  40.9718553  28.9462753   3.8691673  40.4808553  27.8842753   3.1531673
  40.3968553  28.4402753   3.7001673  34.4148553  30.0942753   7.0991673
  33.7478553  30.5822753   7.3751673  35.0948553  30.6392753   7.1281673
  34.4168553  30.2462753   7.1441673  42.0618553  23.8042753  17.1951673
  41.5778553  24.3812753  17.6371673  42.0338553  24.0992753  16.3741673
  41.9858553  23.9332753  17.1391673  53.1598553  24.4882753  11.8071673
  53.3748553  23.6882753  11.5311673  52.3098553  24.5482753  11.6181673
  53.0658553  24.3792753  11.7381673  34.4808553  26.7782753   2.2021673
  34.2958553  25.9392753   2.3541673  35.1398553  26.7422753   1.6321673
  34.5508553  26.6492753   2.1401673  44.7818553  32.1542753   6.1061673
  44.2588553  32.7882753   5.8131673  45.0918553  31.7902753   5.3771673
  44.7498553  32.1942753   5.9551673  34.6528553  30.9422753   1.7771673
  35.2048553  31.5112753   2.1411673  34.4208553  30.4272753   2.4421673
  34.6998553  30.9502753   1.9291673  38.8568553  29.9422753   8.8661673
  39.3238553  30.2312753   9.5441673  39.4288553  29.4642753   8.4121673
  39.0108553  29.9142753   8.8991673  47.2928553  21.9562753   6.6031673
  47.6368553  22.1082753   7.3901673  46.8398553  21.2182753   6.7161673
  47.2768553  21.8692753   6.7361673  35.4228553  27.6122753   7.4101673
  35.8538553  27.4832753   6.6631673  35.2178553  28.4602753   7.3841673
  35.4558553  27.7182753   7.2961673  50.8228553  33.6032753  12.5571673
  50.1518553  34.1172753  12.7751673  50.8858553  33.7032753  11.6931673
  50.7328553  33.6942753  12.4621673  39.5068553  31.1282753   5.6921673
  39.6328553  31.9712753   5.8791673  40.1748553  30.7292753   6.0881673
  39.6248553  31.1942753   5.7781673  37.6368553  24.6112753  15.5541673
  37.1008553  24.1052753  16.0221673  37.6568553  24.2212753  14.7741673
  37.5598553  24.4782753  15.5081673  38.2888553  25.8382753   7.2931673
  37.5078553  25.7792753   6.9101673  38.3608553  25.0862753   7.7301673
  38.1838553  25.7192753   7.3011673  38.7188553  25.5752753  10.7611673
  38.7438553  24.9002753  10.2101673  38.0728553  26.0712753  10.4491673
  38.6278553  25.5482753  10.6341673  48.6138553  23.2882753   9.1571673
  47.9518553  23.6162753   9.6201673  48.8008553  23.9222753   8.5881673
  48.5438553  23.4302753   9.1411673  42.8188553  34.3522753  10.1531673
  42.5418553  33.7112753   9.6301673  42.6108553  35.0782753   9.7151673
  42.7478553  34.3652753  10.0111673  45.2588553  19.1942753  12.5861673
  45.4078553  18.3692753  12.3431673  45.6378553  19.2492753  13.3701673
  45.3368553  19.0802753  12.6661673  46.8068553  21.2572753   2.6681673
  47.2968553  21.9742753   2.5911673  46.0168553  21.5182753   2.4051673
  46.7628553  21.4012753   2.6181673  36.5178553  26.9302753  16.3201673
  36.4808553  27.4312753  15.6061673  36.8488553  26.1782753  16.0251673
  36.5608553  26.8922753  16.1711673  48.1208553  29.1352753  14.5781673
  48.6048553  29.8532753  14.6761673  48.5148553  28.7082753  13.9271673
  48.2508553  29.1782753  14.4961673  42.4168553  31.9802753  15.7551673
  42.7708553  31.8022753  16.5321673  41.9808553  31.2512753  15.5561673
  42.4048553  31.8462753  15.8411673  43.3888553  22.7272753   8.3931673
  43.8688553  23.4262753   8.6011673  43.7618553  22.0802753   8.8441673
  43.5148553  22.7352753   8.4901673  50.5498553  29.7662753   4.6481673
  50.9058553  29.4162753   5.3631673  50.5418553  29.1052753   4.0781673
  50.6018553  29.6162753   4.6691673  46.5948553  32.8322753   8.4921673
  45.9918553  32.5362753   7.9351673  47.1398553  33.2842753   7.9831673
  46.5858553  32.8552753   8.3341673  46.6078553  29.6832753   7.8921673
  45.8108553  29.9072753   8.1661673  46.8658553  29.0892753   8.4771673
  46.5278553  29.6282753   8.0191673  40.4998553  34.4952753   2.3401673
  40.3528553  33.7192753   2.7111673  41.1888553  34.3482753   1.8251673
  40.5798553  34.3582753   2.3191673  49.8678553  27.6812753  12.7381673
  49.9228553  27.8062753  11.8761673  50.6208553  28.0012753  13.0401673
  49.9868553  27.7462753  12.6551673  46.0588553  33.0302753  17.0151673
  46.2228553  33.3132753  17.8241673  46.3218553  33.6912753  16.5101673
  46.1218553  33.1702753  17.0601673  50.8998553  17.9792753  15.7251673
  50.2628553  17.5792753  15.2831673  50.9258553  17.5482753  16.4831673
  50.8098553  17.8572753  15.7711673  45.5988553  27.4872753  12.3381673
  45.4438553  28.0972753  12.9421673  46.1328553  26.9292753  12.7441673
  45.6548553  27.4952753  12.4871673  34.2898553  18.2062753   2.5391673
  34.4188553  17.4982753   2.0471673  33.9228553  17.8882753   3.2641673
  34.2548553  18.0542753   2.5741673  43.9828553  25.8872753   2.9961673
  44.0418553  26.5372753   3.5751673  43.7938553  25.1912753   3.4871673
  43.9638553  25.8802753   3.1541673  49.2088553  30.2162753   8.8651673
  48.7298553  30.5142753   8.1991673  48.8528553  29.4402753   9.0431673
  49.0858553  30.1452753   8.7931673  43.2058553  27.9342753   7.4271673
  42.3588553  27.7402753   7.5081673  43.5298553  27.7692753   8.2201673
  43.1278553  27.8812753   7.5561673  37.0538553  27.6272753   9.7431673
  37.7758553  28.1152753   9.7061673  36.7838553  27.5972753   8.9141673
  37.1208553  27.6952753   9.6151673  40.2838553  22.7982753   6.4781673
  41.1298553  22.6082753   6.5761673  39.9138553  22.0212753   6.3401673
  40.3538553  22.6552753   6.4721673  35.1048553  24.1362753   3.1331673
  35.5938553  23.8442753   3.7941673  35.2338553  23.5432753   2.5061673
  35.1958553  24.0052753   3.1381673  50.1398553  27.1582753   9.9841673
  50.1328553  26.3822753  10.3821673  49.2988553  27.3922753   9.9771673
  50.0148553  27.0782753  10.0421673  36.4488553  28.6792753  14.0211673
  36.0278553  28.1612753  13.4601673  36.0968553  29.4652753  13.8781673
  36.3348553  28.7192753  13.9171673  51.3958553  27.2292753   7.4211673
  51.1098553  27.6302753   8.1411673  52.2558553  27.1672753   7.5481673
  51.4808553  27.2792753   7.5461673  49.0578553  21.1532753  15.9611673
  48.5328553  21.6122753  16.4851673  48.6968553  20.3582753  15.9551673
  48.9268553  21.1032753  16.0371673  34.5648553  20.0012753   7.8651673
  34.6088553  20.3452753   7.0641673  35.3198553  20.2382753   8.2321673
  34.6828553  20.0872753   7.8011673  52.5268553  32.8622753   7.9501673
  52.8168553  33.1192753   7.1691673  53.2218553  32.9582753   8.4691673
  52.6728553  32.9142753   7.9111673  47.5498553  24.7222753  16.0371673
  47.6228553  24.8262753  16.9001673  46.9158553  25.2802753  15.8161673
  47.4668553  24.8202753  16.1321673  49.8178553  25.0412753  14.4021673
  50.1368553  25.8272753  14.6051673  49.4478553  24.7712753  15.1451673
  49.8108553  25.1172753  14.5421673  49.6138553  23.2992753   5.5911673
  48.8688553  22.9762753   5.9091673  49.6158553  24.1252753   5.8711673
  49.5038553  23.3732753   5.6791673  52.5158553  25.5832753  17.1371673
  52.4638553  25.2422753  16.3361673  53.2528553  26.0502753  17.1151673
  52.6168553  25.6022753  17.0151673  52.0538553  29.2592753  13.3431673
  52.6818553  28.7102753  13.0871673  51.9928553  29.8242753  12.6811673
  52.1378553  29.2622753  13.2071673  41.1878553  30.4902753  10.6391673
  40.8898553  31.0822753  11.2061673  41.2428553  30.9322753   9.8901673
  41.1518553  30.6432753  10.6121673  39.1668553  29.4402753  14.0371673
  38.3608553  29.1502753  14.2041673  39.0778553  30.3082753  14.0431673
  39.0348553  29.5252753  14.0621673  48.5258553  19.6292753  13.0521673
  49.2698553  20.0812753  12.9891673  47.9598553  20.0992753  12.5831673
  48.5528553  19.7662753  12.9741673  43.7038553  26.9132753  10.1301673
  44.1798553  27.2872753  10.7581673  42.8808553  27.0472753  10.3891673
  43.6528553  26.9882753  10.2611673  40.4138553  22.5162753  12.8711673
  40.5748553  21.7722753  13.2981673  40.3688553  22.2672753  12.0361673
  40.4308553  22.3692753  12.8111673  42.9678553  34.3062753   5.3581673
  43.5138553  34.9852753   5.4121673  42.6178553  34.3882753   4.5631673
  42.9968553  34.4192753   5.2481673  49.8108553  17.6092753  10.7221673
  49.5308553  18.4342753  10.6781673  50.5268553  17.6622753  11.2181673
  49.8758553  17.7392753  10.7891673  42.1658553  18.3242753  12.7511673
  42.8708553  18.6442753  12.3491673  42.4068553  17.5172753  12.9781673
  42.3048553  18.2522753  12.7251673  41.1508553  32.5342753   8.7471673
  40.5268553  33.1162753   8.5651673  41.3988553  32.2482753   7.9611673
  41.0948553  32.5782753   8.6041673  45.4598553  29.1682753  15.7361673
  46.2168553  29.4542753  15.4101673  44.9128553  29.2202753  15.0581673
  45.4908553  29.2182753  15.5871673  49.3688553  31.7182753  14.2401673
  49.7148553  31.9882753  14.9941673  49.6628553  32.3002753  13.6601673
  49.4638553  31.8442753  14.2661673  38.6748553  23.3772753   8.8121673
  39.1148553  23.2742753   8.0661673  39.2198553  23.0642753   9.4171673
  38.8198553  23.3162753   8.7911673  46.6908553  22.4792753  14.4041673
  46.0428553  22.9492753  14.7521673  47.2558553  22.3902753  15.0631673
  46.6788553  22.5352753  14.5531673  46.3788553  24.0162753  10.7021673
  46.6808553  24.4362753  11.4051673  46.4148553  23.1762753  10.9341673
  46.4288553  23.9542753  10.8401673  43.8038553  34.1832753  14.6271673
  44.2818553  33.5832753  14.2111673  43.4528553  33.7402753  15.2921673
  43.8228553  34.0292753  14.6641673  48.9268553  23.4632753   2.9541673
  49.1338553  23.2622753   3.7781673  49.6828553  23.7312753   2.6121673
  49.0688553  23.4732753   3.0251673  42.2218553  18.3622753   8.8591673
  41.3958553  18.2132753   9.0961673  42.1818553  18.3972753   7.9881673
  42.0938553  18.3452753   8.7651673  49.9488553  19.5462753   4.4281673
  49.2348553  19.0752753   4.5991673  49.7868553  19.8872753   3.6421673
  49.8198553  19.5272753   4.3371673  50.3918553  27.4902753   2.8081673
  50.8678553  26.7612753   2.7601673  49.5708553  27.2042753   2.7321673
  50.3408553  27.3402753   2.7891673  43.8628553  29.4022753  13.6471673
  43.0678553  29.3382753  13.9981673  43.9338553  30.2492753  13.4521673
  43.7558553  29.5172753  13.6701673  34.7868553  18.7602753  14.8941673
  34.6468553  19.5552753  14.5631673  34.0008553  18.5172753  15.1831673
  34.6498553  18.8422753  14.8881673  39.6928553  35.6092753   8.9641673
  39.7038553  35.6682753   9.8341673  39.2678553  34.8622753   8.8141673
  39.6318553  35.5072753   9.0701673  46.6078553  28.6572753   5.1631673
  46.6838553  28.9982753   5.9621673  46.7768553  27.8102753   5.2841673
  46.6438553  28.5822753   5.2991673  44.1298553  27.9312753   4.7281673
  43.8318553  27.6162753   5.4851673  44.8248553  28.4042753   4.9631673
  44.1888553  27.9542753   4.8751673  44.3518553  32.0492753  12.7551673
  45.0388553  31.9352753  13.2801673  44.4858553  32.8402753  12.4111673
  44.4728553  32.1492753  12.7821673  52.5278553  24.6582753  14.5661673
  51.6728553  24.5362753  14.6921673  52.6808553  24.2632753  13.8031673
  52.4238553  24.5812753  14.4721673  47.0408553  25.3232753  13.1421673
  46.7858553  24.6042753  13.5641673  47.8618553  25.4392753  13.4121673
  47.1248553  25.2342753  13.2441673  36.4568553  35.1072753  14.4061673
  35.8028553  34.5382753  14.5041673  36.0818553  35.8802753  14.5571673
  36.3048553  35.1372753  14.4431673  44.9748553  26.5132753  16.3291673
  45.2978553  27.1992753  15.8971673  44.2708553  26.8362753  16.7311673
  44.9178553  26.6622753  16.3241673  48.0588553  34.8872753   7.2581673
  47.6078553  35.5302753   7.6371673  48.7668553  34.8082753   7.7631673
  48.0968553  34.9702753   7.3891673  44.7598553  29.9772753  10.1881673
  44.0658553  30.3792753  10.5311673  45.4368553  30.4102753  10.5271673
  44.7568553  30.1002753  10.2891673  50.1368553  32.5702753  16.7681673
  50.9128553  32.1802753  16.8511673  49.6678553  32.2342753  17.4231673
  50.1818553  32.4632753  16.8771673  37.8278553  23.5152753  12.5351673
  38.2028553  24.1342753  12.0481673  38.5018553  23.0412753  12.8201673
  37.9828553  23.5372753  12.5051673  35.6028553  21.9632753  11.8101673
  35.6798553  21.7942753  10.9571673  36.3488553  22.3692753  12.0071673
  35.7238553  21.9982753  11.7131673  38.1568553  19.3732753  14.2211673
  38.0758553  18.5292753  14.4271673  37.8428553  19.4172753  13.4081673
  38.0988553  19.2552753  14.1311673  45.0818553  31.5682753   3.3571673
  44.8768553  32.4012753   3.1981673  44.3068553  31.1862753   3.4791673
  44.9368553  31.6352753   3.3521673  50.2638553  24.7492753  11.6061673
  50.2618553  23.8862753  11.7301673  50.3308553  25.0732753  12.4131673
  50.2738553  24.6692753  11.7431673  34.9998553  27.1892753  12.0341673
  35.3198553  27.4082753  11.2531673  34.8998553  26.3242753  11.9791673
  35.0318553  27.0942753  11.9111673  46.1428553  19.5492753  15.3881673
  46.2348553  20.2612753  15.8821673  45.5058553  19.1042753  15.7851673
  46.0618553  19.5882753  15.5201673  45.1368553  19.7392753   6.2421673
  44.4368553  20.2572753   6.1861673  45.1748553  19.3592753   5.4581673
  45.0388553  19.7602753   6.1181673  48.7348553  20.2552753   9.0421673
  49.5898553  20.3542753   9.1871673  48.3658553  20.8082753   9.6071673
  48.8068553  20.3522753   9.1471673  39.7628553  26.4812753  13.4191673
  39.3668553  27.2552753  13.4941673  39.3568553  26.1082753  12.7431673
  39.6448553  26.5402753  13.3301673  49.0388553  25.5352753   7.5331673
  49.7048553  26.0762753   7.6931673  48.6938553  25.8462753   6.7941673
  49.0858553  25.6612753   7.4481673  49.3518553  33.6012753   3.3401673
  49.1778553  32.9472753   3.8901673  50.0648553  33.3302753   2.9171673
  49.4318553  33.4642753   3.3591673  40.1918553  19.4582753  10.8691673
  39.3278553  19.5422753  10.9491673  40.4118553  18.9442753  11.5381673
  40.0968553  19.3952753  10.9801673  52.2098553  18.0932753  12.1981673
  52.1578553  18.0492753  13.0681673  52.8968553  17.5902753  12.0081673
  52.3038553  18.0132753  12.2981673  44.2948553  20.2062753   9.2431673
  43.5578553  19.7522753   9.3561673  44.8658553  19.8042753   9.7661673
  44.2698553  20.0792753   9.3371673  47.0268553  31.0542753  11.0311673
  47.2328553  31.3552753  11.8231673  46.9658553  31.7762753  10.5461673
  47.0478553  31.2052753  11.0761673  46.5608553  35.2682753  15.2771673
  45.8078553  35.2502753  14.8361673  46.7288553  36.1202753  15.3611673
  46.4748553  35.3912753  15.2241673  41.7978553  24.5352753  14.4471673
  41.4758553  23.9592753  13.8771673  41.4388553  25.2902753  14.2011673
  41.6978553  24.5612753  14.3271673  51.8388553  29.6932753  10.4891673
  51.8068553  28.8312753  10.3541673  51.1458553  29.9952753  10.0551673
  51.7318553  29.6102753  10.4051673  40.2328553  34.8912753  14.6951673
  40.2738553  35.0172753  15.5581673  40.8838553  34.3312753  14.5391673
  40.3348553  34.8272753  14.8001673  49.9438553  32.9532753   9.2861673
  50.4708553  32.8702753   8.5951673  49.5528553  32.1752753   9.3401673
  49.9638553  32.8262753   9.1921673  37.4118553  19.5412753  11.5171673
  37.0688553  18.7742753  11.2831673  36.7168553  20.0652753  11.5811673
  37.2588553  19.5052753  11.4921673  46.4578553  18.3972753   8.4941673
  47.1278553  18.9412753   8.6211673  45.9548553  18.8212753   7.9211673
  46.4828553  18.5402753   8.4281673  37.8258553  33.2742753  16.0551673
  38.4208553  33.7052753  16.5271673  37.4618553  33.8982753  15.5661673
  37.8598553  33.4302753  16.0521673  45.8168553  24.2052753   5.9871673
  46.3678553  23.5982753   6.2871673  45.3918553  24.4682753   6.7021673
  45.8358553  24.1542753   6.1361673  36.0648553  22.8552753   5.4731673
  35.6968553  23.1572753   6.2041673  36.5988553  22.2262753   5.7571673
  36.0888553  22.8072753   5.6231673  35.7528553  31.2632753  12.9841673
  35.1788553  31.6792753  13.4931673  36.4858553  31.7282753  13.0791673
  35.7768553  31.3932753  13.0731673  47.7868553  26.0362753   2.5491673
  47.8548553  25.1862753   2.7301673  46.9638553  26.1222753   2.2711673
  47.6748553  25.9232753   2.5351673  51.0608553  27.4092753  15.7001673
  51.6948553  27.2392753  16.2741673  51.4778553  27.8122753  15.0481673
  51.2158553  27.4442753  15.6891673  51.6858553  21.9732753  16.4381673
  51.4898553  22.6172753  16.9931673  50.9638553  21.4832753  16.4301673
  51.5508553  21.9962753  16.5191673  51.5848553  22.9142753   9.4091673
  50.7518553  23.1642753   9.3371673  51.5288553  22.0742753   9.6381673
  51.4538553  22.8272753   9.4321673  40.8448553  19.9022753  14.6031673
  41.0788553  19.3262753  13.9901673  40.0028553  19.7212753  14.7441673
  40.7548553  19.7902753  14.5331673  48.4718553  27.5202753  17.0551673
  49.3428553  27.4842753  17.0191673  48.2528553  27.9402753  16.3231673
  48.5688553  27.5762753  16.9421673  38.2258553  33.3452753   8.2361673
  38.1468553  32.5352753   7.9201673  37.7818553  33.8322753   7.6641673
  38.1488553  33.2972753   8.1051673  35.7978553  35.5892753  11.8171673
  36.2908553  35.5332753  12.5351673  35.9858553  34.8562753  11.3821673
  35.8988553  35.4722753  11.8591673  45.0448553   6.5431673  84.6601313
  44.5208553   7.1391673  85.0231313  45.4418553   6.1751673  85.3441313
  45.0258553   6.5771673  84.8151313  34.9138553  10.6831673  80.1161313
  34.4728553  10.8011673  80.8591313  34.6308553   9.9081673  79.8311313
  34.8068553  10.5861673  80.1841313  51.1888553  13.9841673  77.6311313
  51.8898553  13.4651673  77.6271313  50.6018553  13.5391673  77.1621313
  51.2058553  13.8411673  77.5611313  34.6568553   4.4751673  76.6231313
  33.8788553   4.6371673  76.2631313  34.6958553   3.6041673  76.6451313
  34.5478553   4.3701673  76.5731313  37.7958553   9.7381673  75.2951313
  37.4038553   9.3671673  74.6091313  37.7158553   9.1401673  75.9241313
  37.7258553   9.5951673  75.2861313  47.7158553   7.6101673  81.3361313
  47.7958553   7.6141673  80.4671313  47.1318553   6.9781673  81.4851313
  47.6408553   7.5171673  81.2301313  37.4228553  11.3791673  79.1951313
  38.0308553  11.2091673  79.7981313  36.6718553  11.2391673  79.6161313
  37.4018553  11.3331673  79.3461313  36.3138553  14.4701673  75.2721313
  36.7808553  14.5541673  74.5401313  36.7688553  13.8921673  75.7411313
  36.4498553  14.3971673  75.2331313  34.8538553  13.4181673  86.3711313
  34.9828553  13.1381673  87.1871313  34.2438553  12.8771673  86.0621313
  34.7828553  13.2971673  86.4461313  36.2998553   7.9391673  80.5731313
  35.8378553   7.5471673  79.9461313  36.9998553   7.4261673  80.6651313
  36.3348553   7.8061673  80.4941313  40.8078553   3.5491673  85.9201313
  41.4858553   3.5671673  85.3711313  40.7628553   2.7131673  86.1651313
  40.9008553   3.4281673  85.8751313  41.4098553  14.1351673  88.7011313
  41.5478553  14.8951673  88.2941313  42.2008553  13.7701673  88.7281313
  41.5468553  14.1941673  88.6451313  38.3008553   6.0391673  80.5961313
  39.1178553   5.8521673  80.8391313  37.8238553   5.4251673  80.9921313
  38.3508553   5.9211673  80.6911313  42.5048553  12.0201673  83.2061313
  42.8528553  11.2211673  83.2361313  43.1698553  12.5241673  82.9511313
  42.6548553  11.9761673  83.1731313  42.5618553  11.4691673  79.4171313
  42.8928553  10.8251673  79.9031313  42.8018553  11.2581673  78.6061313
  42.6458553  11.3431673  79.3691313  46.5498553   3.2011673  74.3841313
  46.0998553   3.8821673  74.6911313  46.6638553   2.6971673  75.0871313
  46.5008553   3.2271673  74.5331313  34.7558553   5.7001673  83.5861313
  34.4998553   6.5311673  83.5111313  34.0918553   5.3171673  84.0031313
  34.6198553   5.7661673  83.6371313  34.6658553  15.4101673  81.4861313
  34.0738553  15.9681673  81.1731313  35.0918553  15.1411673  80.7741313
  34.6418553  15.4521673  81.3351313  40.5058553  13.2541673  78.9661313
  39.9268553  12.9791673  79.5581313  41.1298553  12.6451673  78.9911313
  40.5128553  13.1241673  79.0571313  46.6488553  15.5421673  76.4881313
  47.3758553  16.0141673  76.5901313  46.8778553  14.7481673  76.7681313
  46.7908553  15.4951673  76.5451313  44.8168553  15.9341673  78.4781313
  45.0308553  16.4611673  79.1401313  45.5838553  15.7601673  78.0991313
  44.9618553  15.9861673  78.5201313  36.2108553  14.0801673  79.4171313
  36.8668553  13.5051673  79.4321313  36.5998553  14.8291673  79.1961313
  36.3658553  14.1051673  79.3871313  51.9438553   3.1741673  80.6791313
  51.5978553   3.8521673  81.1051313  51.3078553   2.5761673  80.6951313
  51.7988553   3.1861673  80.7441313  47.2558553  15.9441673  86.7831313
  47.9998553  16.4001673  86.7731313  47.1348553  15.7301673  85.9461313
  47.3478553  15.9801673  86.6581313  37.0288553  12.5671673  82.9171313
  37.4518553  12.2111673  82.2431313  37.3528553  12.1451673  83.6091313
  37.1388553  12.4521673  82.9201313  40.2598553  15.4191673  82.2131313
  41.1038553  15.5231673  82.0181313  39.9628553  16.2371673  82.2811313
  40.3408553  15.5551673  82.1941313  44.0668553   4.8161673  80.3001313
  44.3538553   4.5841673  79.5101313  44.7988553   4.8951673  80.7691313
  44.2168553   4.7931673  80.2531313  44.7888553   5.1551673  75.4211313
  45.0698553   5.9431673  75.6701313  44.0128553   5.3201673  75.0581313
  44.7158553   5.2961673  75.4041313  48.8298553  17.1291673  76.8881313
  49.4948553  16.9811673  76.3431313  49.1898553  17.0461673  77.6781313
  48.9818553  17.0951673  76.9241313  39.2578553  16.6381673  87.9531313
  39.5498553  16.5711673  88.7731313  38.6318553  16.0331673  87.9081313
  39.2088553  16.5391673  88.0681313  43.6478553  13.3261673  75.2371313
  43.4668553  13.8711673  75.8941313  44.4138553  13.6161673  74.9361313
  43.7338553  13.4501673  75.2901313  37.2508553  14.8001673  87.0751313
  36.5528553  14.2921673  87.2011313  37.5108553  14.5951673  86.2671313
  37.1858553  14.6951673  86.9741313  44.4128553   3.5981673  77.6051313
  43.9048553   2.9361673  77.3511313  44.4648553   4.1021673  76.8951313
  44.3458553   3.5751673  77.4631313  44.9618553  16.2931673  87.9851313
  45.7298553  16.2131673  87.5791313  44.3788553  16.1721673  87.3471313
  44.9888553  16.2631673  87.8311313  51.2388553  16.8961673  80.8861313
  50.7838553  17.6131673  81.0871313  50.6248553  16.3251673  80.6441313
  51.0808553  16.9181673  80.8801313  43.0108553   2.9061673  82.0181313
  43.0848553   3.4741673  81.3601313  43.1318553   3.3981673  82.7281313
  43.0388553   3.0631673  82.0261313  48.2358553  12.7411673  80.4301313
  48.9368553  12.2591673  80.6191313  47.5758553  12.1721673  80.4751313
  48.2418553  12.5861673  80.4641313  40.5748553   9.1621673  84.3911313
  40.7468553   8.9521673  85.2201313  39.9198553   8.6281673  84.1751313
  40.5038553   9.0521673  84.4821313  46.8028553   3.0761673  87.9061313
  46.7078553   3.3951673  88.7121313  46.2098553   2.4371673  87.8681313
  46.7008553   3.0281673  88.0201313  41.3248553   9.1001673  86.9811313
  41.3778553   9.9471673  87.1831313  41.0398553   8.7301673  87.7181313
  41.2908553   9.1701673  87.1191313  47.5018553   9.7951673  86.1111313
  46.9878553   9.3831673  86.6821313  47.3758553  10.6391673  86.2921313
  47.4078553   9.8591673  86.2221313  50.5228553   3.2561673  89.0501313
  51.2948553   3.0311673  89.3871313  50.0478553   3.4731673  89.7501313
  50.5668553   3.2551673  89.2031313  38.0668553   2.5391673  82.0201313
  38.3388553   2.1091673  81.3121313  37.8908553   1.9031673  82.5911313
  38.0808553   2.3821673  82.0001313  50.7548553  10.2341673  76.2381313
  50.8738553   9.9471673  77.0531313  51.5618553  10.2551673  75.9081313
  50.8908553  10.1951673  76.3101313  37.8908553   9.9661673  81.5691313
  38.7418553   9.8861673  81.3961313  37.5338553   9.2841673  81.1571313
  37.9638553   9.8531673  81.4821313  36.6578553  16.6911673  82.8061313
  35.9848553  16.1931673  82.5611313  37.0608553  16.8761673  82.0551313
  36.6178553  16.6451673  82.6591313  36.2078553   3.6411673  85.1021313
  37.0508553   3.8611673  85.0591313  35.8188553   4.2141673  84.5711313
  36.2748553   3.7581673  85.0171313  48.6498553   6.7711673  75.8231313
  48.4298553   7.5021673  75.4011313  48.2018553   6.8221673  76.5701313
  48.5508553   6.8861673  75.8711313  40.2588553   9.9731673  79.8041313
  40.9718553  10.4681673  79.8941313  40.4808553   9.4061673  79.1781313
  40.3968553   9.9621673  79.7251313  34.4148553  11.6161673  83.1241313
  33.7478553  12.1041673  83.4001313  35.0948553  12.1611673  83.1531313
  34.4168553  11.7681673  83.1691313  53.1598553   6.0101673  87.8321313
  53.3748553   5.2101673  87.5561313  52.3098553   6.0701673  87.6431313
  53.0658553   5.9011673  87.7631313  34.4808553   8.3001673  78.2271313
  34.2958553   7.4611673  78.3791313  35.1398553   8.2641673  77.6571313
  34.5508553   8.1711673  78.1651313  44.7818553  13.6761673  82.1311313
  44.2588553  14.3101673  81.8381313  45.0918553  13.3121673  81.4021313
  44.7498553  13.7161673  81.9801313  34.6528553  12.4641673  77.8021313
  35.2048553  13.0331673  78.1661313  34.4208553  11.9491673  78.4671313
  34.6998553  12.4721673  77.9541313  38.8568553  11.4641673  84.8911313
  39.3238553  11.7531673  85.5691313  39.4288553  10.9861673  84.4371313
  39.0108553  11.4361673  84.9241313  47.2928553   3.4781673  82.6281313
  47.6368553   3.6301673  83.4151313  46.8398553   2.7401673  82.7411313
  47.2768553   3.3911673  82.7611313  34.4828553  10.9131673  75.4301313
  35.2388553  10.4811673  75.4881313  34.4978553  11.4451673  76.1211313
  34.5968553  10.9281673  75.5411313  35.4228553   9.1341673  83.4351313
  35.8538553   9.0051673  82.6881313  35.2178553   9.9821673  83.4091313
  35.4558553   9.2401673  83.3211313  41.7688553   2.6981673  77.0851313
  41.7668553   2.5811673  76.2201313  41.5878553   3.5461673  77.1771313
  41.7418553   2.8061673  76.9711313  50.8228553  15.1251673  88.5821313
  50.1518553  15.6391673  88.8001313  50.8858553  15.2251673  87.7181313
  50.7328553  15.2161673  88.4871313  39.5068553  12.6501673  81.7171313
  39.6328553  13.4931673  81.9041313  40.1748553  12.2511673  82.1131313
  39.6248553  12.7161673  81.8031313  38.1218553   5.5301673  76.7191313
  37.9938553   5.0821673  77.4571313  37.5398553   5.1881673  76.1671313
  38.0168553   5.4131673  76.7471313  38.2888553   7.3601673  83.3181313
  37.5078553   7.3011673  82.9351313  38.3608553   6.6081673  83.7551313
  38.1838553   7.2411673  83.3261313  38.7188553   7.0971673  86.7861313
  38.7438553   6.4221673  86.2351313  38.0728553   7.5931673  86.4741313
  38.6278553   7.0701673  86.6591313  48.6138553   4.8101673  85.1821313
  47.9518553   5.1381673  85.6451313  48.8008553   5.4441673  84.6131313
  48.5438553   4.9521673  85.1661313  42.8188553  15.8741673  86.1781313
  42.5418553  15.2331673  85.6551313  42.6108553  16.6001673  85.7401313
  42.7478553  15.8871673  86.0361313  46.8068553   2.7791673  78.6931313
  47.2968553   3.4961673  78.6161313  46.0168553   3.0401673  78.4301313
  46.7628553   2.9231673  78.6431313  43.3888553   4.2491673  84.4181313
  43.8688553   4.9481673  84.6261313  43.7618553   3.6021673  84.8691313
  43.5148553   4.2571673  84.5151313  45.5778553   7.4181673  76.6921313
  45.5698553   8.1401673  76.2021313  44.9388553   7.5531673  77.2691313
  45.4828553   7.5451673  76.7051313  50.5498553  11.2881673  80.6731313
  50.9058553  10.9381673  81.3881313  50.5418553  10.6271673  80.1031313
  50.6018553  11.1381673  80.6941313  46.5948553  14.3541673  84.5171313
  45.9918553  14.0581673  83.9601313  47.1398553  14.8061673  84.0081313
  46.5858553  14.3771673  84.3591313  46.6078553  11.2051673  83.9171313
  45.8108553  11.4291673  84.1911313  46.8658553  10.6111673  84.5021313
  46.5278553  11.1501673  84.0441313  40.4998553  16.0171673  78.3651313
  40.3528553  15.2411673  78.7361313  41.1888553  15.8701673  77.8501313
  40.5798553  15.8801673  78.3441313  42.7918553  15.5331673  76.7671313
  43.4138553  15.6961673  77.3571313  42.8278553  16.2241673  76.2351313
  42.8888553  15.6591673  76.7761313  49.8678553   9.2031673  88.7631313
  49.9228553   9.3281673  87.9011313  50.6208553   9.5231673  89.0651313
  49.9868553   9.2681673  88.6801313  37.2928553   8.0671673  77.5961313
  37.6168553   7.2881673  77.3741313  37.9388553   8.4351673  78.0511313
  37.4358553   8.0061673  77.6301313  45.5988553   9.0091673  88.3631313
  45.4438553   9.6191673  88.9671313  46.1328553   8.4511673  88.7691313
  45.6548553   9.0171673  88.5121313  43.9828553   7.4091673  79.0211313
  44.0418553   8.0591673  79.6001313  43.7938553   6.7131673  79.5121313
  43.9638553   7.4021673  79.1791313  49.2088553  11.7381673  84.8901313
  48.7298553  12.0361673  84.2241313  48.8528553  10.9621673  85.0681313
  49.0858553  11.6671673  84.8181313  38.4788553   1.9261673  75.5331313
  37.9678553   1.9791673  74.8271313  39.2628553   2.1661673  75.2371313
  38.5188553   1.9691673  75.3851313  43.2058553   9.4561673  83.4521313
  42.3588553   9.2621673  83.5331313  43.5298553   9.2911673  84.2451313
  43.1278553   9.4031673  83.5811313  39.9578553  16.1861673  74.3381313
  40.3968553  15.4891673  74.6261313  40.1648553  16.8101673  74.9111313
  40.0538553  16.1751673  74.4651313  37.0538553   9.1491673  85.7681313
  37.7758553   9.6371673  85.7311313  36.7838553   9.1191673  84.9391313
  37.1208553   9.2171673  85.6401313  40.2838553   4.3201673  82.5031313
  41.1298553   4.1301673  82.6011313  39.9138553   3.5431673  82.3651313
  40.3538553   4.1771673  82.4971313  52.9008553  15.9041673  76.8301313
  53.5948553  15.4371673  76.5821313  52.3618553  15.3061673  77.1671313
  52.9238553  15.7461673  76.8431313  35.1048553   5.6581673  79.1581313
  35.5938553   5.3661673  79.8191313  35.2338553   5.0651673  78.5311313
  35.1958553   5.5271673  79.1631313  50.1398553   8.6801673  86.0091313
  50.1328553   7.9041673  86.4071313  49.2988553   8.9141673  86.0021313
  50.0148553   8.6001673  86.0671313  39.6298553   7.0921673  74.6441313
  39.0198553   6.6871673  75.1181313  39.2438553   7.2101673  73.8711313
  39.4828553   7.0491673  74.6001313  36.4488553  10.2011673  90.0461313
  36.0278553   9.6831673  89.4851313  36.0968553  10.9871673  89.9031313
  36.3348553  10.2411673  89.9421313  51.3958553   8.7511673  83.4461313
  51.1098553   9.1521673  84.1661313  52.2558553   8.6891673  83.5731313
  51.4808553   8.8011673  83.5711313  41.0848553   5.5531673  77.3541313
  41.3568553   6.3791673  77.4211313  40.2218553   5.6281673  77.2581313
  40.9978553   5.6861673  77.3491313  52.5268553  14.3841673  83.9751313
  52.8168553  14.6411673  83.1941313  53.2218553  14.4801673  84.4941313
  52.6728553  14.4361673  83.9361313  49.1318553  12.9871673  75.9571313
  49.4658553  12.1811673  75.9921313  48.3768553  12.9151673  76.3871313
  49.0698553  12.8571673  76.0261313  49.6138553   4.8211673  81.6161313
  48.8688553   4.4981673  81.9341313  49.6158553   5.6471673  81.8961313
  49.5038553   4.8951673  81.7041313  52.0538553  10.7811673  89.3681313
  52.6818553  10.2321673  89.1121313  51.9928553  11.3461673  88.7061313
  52.1378553  10.7841673  89.2321313  46.5058553  10.8621673  75.3601313
  47.1898553  10.3481673  75.1911313  46.0888553  10.9081673  74.5951313
  46.5448553  10.7931673  75.2221313  41.1878553  12.0121673  86.6641313
  40.8898553  12.6041673  87.2311313  41.2428553  12.4541673  85.9151313
  41.1518553  12.1651673  86.6371313  43.7038553   8.4351673  86.1551313
  44.1798553   8.8091673  86.7831313  42.8808553   8.5691673  86.4141313
  43.6528553   8.5101673  86.2861313  40.4138553   4.0381673  88.8961313
  40.5748553   3.2941673  89.3231313  40.3688553   3.7891673  88.0611313
  40.4308553   3.8911673  88.8361313  42.9678553  15.8281673  81.3831313
  43.5138553  16.5071673  81.4371313  42.6178553  15.9101673  80.5881313
  42.9968553  15.9411673  81.2731313  41.1508553  14.0561673  84.7721313
  40.5268553  14.6381673  84.5901313  41.3988553  13.7701673  83.9861313
  41.0948553  14.1001673  84.6291313  51.2318553   5.3861673  75.6041313
  51.6098553   6.0631673  75.2041313  50.3898553   5.6101673  75.6351313
  51.1628553   5.5191673  75.5491313  42.7448553   8.8321673  74.6871313
  41.9398553   8.6551673  74.4021313  42.7118553   9.6831673  74.8791313
  42.6208553   8.9311673  74.6741313  38.6748553   4.8991673  84.8371313
  39.1148553   4.7961673  84.0911313  39.2198553   4.5861673  85.4421313
  38.8198553   4.8381673  84.8161313  46.3788553   5.5381673  86.7271313
  46.6808553   5.9581673  87.4301313  46.4148553   4.6981673  86.9591313
  46.4288553   5.4761673  86.8651313  48.9268553   4.9851673  78.9791313
  49.1338553   4.7841673  79.8031313  49.6828553   5.2531673  78.6371313
  49.0688553   4.9951673  79.0501313  50.3918553   9.0121673  78.8331313
  50.8678553   8.2831673  78.7851313  49.5708553   8.7261673  78.7571313
  50.3408553   8.8621673  78.8141313  43.8628553  10.9241673  89.6721313
  43.0678553  10.8601673  90.0231313  43.9338553  11.7711673  89.4771313
  43.7558553  11.0391673  89.6951313  39.6928553  17.1311673  84.9891313
  39.7038553  17.1901673  85.8591313  39.2678553  16.3841673  84.8391313
  39.6318553  17.0291673  85.0951313  37.8508553   3.0261673  78.1441313
  37.9768553   2.6971673  77.3461313  37.0388553   2.7771673  78.3431313
  37.7498553   2.9411673  78.0561313  46.6078553  10.1791673  81.1881313
  46.6838553  10.5201673  81.9871313  46.7768553   9.3321673  81.3091313
  46.6438553  10.1041673  81.3241313  44.1298553   9.4531673  80.7531313
  43.8318553   9.1381673  81.5101313  44.8248553   9.9261673  80.9881313
  44.1888553   9.4761673  80.9001313  44.3518553  13.5711673  88.7801313
  45.0388553  13.4571673  89.3051313  44.4858553  14.3621673  88.4361313
  44.4728553  13.6711673  88.8071313  47.0408553   6.8451673  89.1671313
  46.7858553   6.1261673  89.5891313  47.8618553   6.9611673  89.4371313
  47.1248553   6.7561673  89.2691313  48.0588553  16.4091673  83.2831313
  47.6078553  17.0521673  83.6621313  48.7668553  16.3301673  83.7881313
  48.0968553  16.4921673  83.4141313  44.7598553  11.4991673  86.2131313
  44.0658553  11.9011673  86.5561313  45.4368553  11.9321673  86.5521313
  44.7568553  11.6221673  86.3141313  37.8278553   5.0371673  88.5601313
  38.2028553   5.6561673  88.0731313  38.5018553   4.5631673  88.8451313
  37.9828553   5.0591673  88.5301313  35.6028553   3.4851673  87.8351313
  35.6798553   3.3161673  86.9821313  36.3488553   3.8911673  88.0321313
  35.7238553   3.5201673  87.7381313  51.1618553   6.1251673  78.2751313
  51.2648553   6.0671673  77.4111313  51.9028553   5.7931673  78.5931313
  51.2868553   6.0681673  78.1941313  45.0818553  13.0901673  79.3821313
  44.8768553  13.9231673  79.2231313  44.3068553  12.7081673  79.5041313
  44.9368553  13.1571673  79.3771313  50.2638553   6.2711673  87.6311313
  50.2618553   5.4081673  87.7551313  50.3308553   6.5951673  88.4381313
  50.2738553   6.1911673  87.7681313  34.9998553   8.7111673  88.0591313
  35.3198553   8.9301673  87.2781313  34.8998553   7.8461673  88.0041313
  35.0318553   8.6161673  87.9361313  36.4558553   4.6471673  74.6771313
  35.7838553   4.6611673  75.2331313  36.5508553   3.7991673  74.4931313
  36.3708553   4.5241673  74.7321313  40.4438553  13.3521673  75.7911313
  40.8848553  13.4321673  76.5391313  39.6388553  13.1361673  76.0491313
  40.3898553  13.3321673  75.9401313  48.7348553   1.7771673  85.0671313
  49.5898553   1.8761673  85.2121313  48.3658553   2.3301673  85.6321313
  48.8068553   1.8741673  85.1721313  39.7628553   8.0031673  89.4441313
  39.3668553   8.7771673  89.5191313  39.3568553   7.6301673  88.7681313
  39.6448553   8.0621673  89.3551313  49.0388553   7.0571673  83.5581313
  49.7048553   7.5981673  83.7181313  48.6938553   7.3681673  82.8191313
  49.0858553   7.1831673  83.4731313  49.3518553  15.1231673  79.3651313
  49.1778553  14.4691673  79.9151313  50.0648553  14.8521673  78.9421313
  49.4318553  14.9861673  79.3841313  37.7728553  12.4221673  76.3921313
  37.5288553  12.1151673  77.1721313  37.7398553  11.7191673  75.8761313
  37.7318553  12.2731673  76.4311313  40.5918553  10.6671673  75.1351313
  39.7738553  10.3991673  75.2751313  40.5638553  11.5191673  75.3201313
  40.4668553  10.7541673  75.1831313  47.0268553  12.5761673  87.0561313
  47.2328553  12.8771673  87.8481313  46.9658553  13.2981673  86.5711313
  47.0478553  12.7271673  87.1011313  51.8388553  11.2151673  86.5141313
  51.8068553  10.3531673  86.3791313  51.1458553  11.5171673  86.0801313
  51.7318553  11.1321673  86.4301313  49.9438553  14.4751673  85.3111313
  50.4708553  14.3921673  84.6201313  49.5528553  13.6971673  85.3651313
  49.9638553  14.3481673  85.2171313  45.8168553   5.7271673  82.0121313
  46.3678553   5.1201673  82.3121313  45.3918553   5.9901673  82.7271313
  45.8358553   5.6761673  82.1611313  36.0648553   4.3771673  81.4981313
  35.6968553   4.6791673  82.2291313  36.5988553   3.7481673  81.7821313
  36.0888553   4.3291673  81.6481313  35.7528553  12.7851673  89.0091313
  35.1788553  13.2011673  89.5181313  36.4858553  13.2501673  89.1041313
  35.7768553  12.9151673  89.0981313  47.7868553   7.5581673  78.5741313
  47.8548553   6.7081673  78.7551313  46.9638553   7.6441673  78.2961313
  47.6748553   7.4451673  78.5601313  37.5388553  16.0521673  77.7841313
  37.3938553  16.2081673  76.9381313  38.4048553  16.1311673  77.8621313
  37.6458553  16.0871673  77.6711313  41.7058553   8.4491673  77.5121313
  41.8058553   8.5881673  76.6571313  42.5238553   8.3891673  77.8081313
  41.8408553   8.4601673  77.4291313  50.8658553  16.5131673  74.9921313
  51.5028553  16.3791673  75.5731313  50.5248553  15.7191673  74.8751313
  50.9098553  16.3761673  75.0601313  46.9408553  12.7781673  77.3141313
  46.6898553  12.6501673  78.1401313  46.6238553  12.0831673  76.8931313
  46.8568553  12.6571673  77.3741313  51.5848553   4.4361673  85.4341313
  50.7518553   4.6861673  85.3621313  51.5288553   3.5961673  85.6631313
  51.4538553   4.3491673  85.4571313  38.2258553  14.8671673  84.2611313
  38.1468553  14.0571673  83.9451313  37.7818553  15.3541673  83.6891313
  38.1488553  14.8191673  84.1301313  43.8268553  10.9861673  76.7441313
  44.5438553  10.6391673  76.3881313  43.7928553  11.7861673  76.3961313
  43.9278553  11.0531673  76.6401313  35.7978553  17.1111673  87.8421313
  36.2908553  17.0551673  88.5601313  35.9858553  16.3781673  87.4071313
  35.8988553  16.9941673  87.8841313  45.0448553   6.5431673  65.6538903
  44.5208553   7.1391673  66.0168903  45.4418553   6.1751673  66.3378903
  45.0258553   6.5771673  65.8088903  34.9138553  10.6831673  61.1098903
  34.4728553  10.8011673  61.8528903  34.6308553   9.9081673  60.8248903
  34.8068553  10.5861673  61.1778903  51.1888553  13.9841673  58.6248903
  51.8898553  13.4651673  58.6208903  50.6018553  13.5391673  58.1558903
  51.2058553  13.8411673  58.5548903  34.6568553   4.4751673  57.6168903
  33.8788553   4.6371673  57.2568903  34.6958553   3.6041673  57.6388903
  34.5478553   4.3701673  57.5668903  37.7958553   9.7381673  56.2888903
  37.4038553   9.3671673  55.6028903  37.7158553   9.1401673  56.9178903
  37.7258553   9.5951673  56.2798903  47.7158553   7.6101673  62.3298903
  47.7958553   7.6141673  61.4608903  47.1318553   6.9781673  62.4788903
  47.6408553   7.5171673  62.2238903  37.4228553  11.3791673  60.1888903
  38.0308553  11.2091673  60.7918903  36.6718553  11.2391673  60.6098903
  37.4018553  11.3331673  60.3398903  36.3138553  14.4701673  56.2658903
  36.7808553  14.5541673  55.5338903  36.7688553  13.8921673  56.7348903
  36.4498553  14.3971673  56.2268903  34.8538553  13.4181673  67.3648903
  34.9828553  13.1381673  68.1808903  34.2438553  12.8771673  67.0558903
  34.7828553  13.2971673  67.4398903  41.4278553  10.9431673  72.4318903
  41.1918553  10.9401673  73.2718903  40.6798553  10.7951673  72.0078903
  41.2818553  10.9201673  72.4928903  36.2998553   7.9391673  61.5668903
  35.8378553   7.5471673  60.9398903  36.9998553   7.4261673  61.6588903
  36.3348553   7.8061673  61.4878903  40.8078553   3.5491673  66.9138903
  41.4858553   3.5671673  66.3648903  40.7628553   2.7131673  67.1588903
  40.9008553   3.4281673  66.8688903  41.4098553  14.1351673  69.6948903
  41.5478553  14.8951673  69.2878903  42.2008553  13.7701673  69.7218903
  41.5468553  14.1941673  69.6388903  38.3008553   6.0391673  61.5898903
  39.1178553   5.8521673  61.8328903  37.8238553   5.4251673  61.9858903
  38.3508553   5.9211673  61.6848903  42.5048553  12.0201673  64.1998903
  42.8528553  11.2211673  64.2298903  43.1698553  12.5241673  63.9448903
  42.6548553  11.9761673  64.1668903  42.5618553  11.4691673  60.4108903
  42.8928553  10.8251673  60.8968903  42.8018553  11.2581673  59.5998903
  42.6458553  11.3431673  60.3628903  44.5298553   5.6001673  71.7498903
  43.6818553   5.5011673  71.5718903  44.5588553   6.3451673  72.2038903
  44.4088553   5.6961673  71.7908903  46.5498553   3.2011673  55.3778903
  46.0998553   3.8821673  55.6848903  46.6638553   2.6971673  56.0808903
  46.5008553   3.2271673  55.5268903  34.7558553   5.7001673  64.5798903
  34.4998553   6.5311673  64.5048903  34.0918553   5.3171673  64.9968903
  34.6198553   5.7661673  64.6308903  34.6658553  15.4101673  62.4798903
  34.0738553  15.9681673  62.1668903  35.0918553  15.1411673  61.7678903
  34.6418553  15.4521673  62.3288903  40.5058553  13.2541673  59.9598903
  39.9268553  12.9791673  60.5518903  41.1298553  12.6451673  59.9848903
  40.5128553  13.1241673  60.0508903  46.6488553  15.5421673  57.4818903
  47.3758553  16.0141673  57.5838903  46.8778553  14.7481673  57.7618903
  46.7908553  15.4951673  57.5388903  44.8168553  15.9341673  59.4718903
  45.0308553  16.4611673  60.1338903  45.5838553  15.7601673  59.0928903
  44.9618553  15.9861673  59.5138903  41.0908553   2.6501673  74.3688903
  41.2078553   2.1961673  73.6328903  41.3788553   3.4481673  74.1658903
  41.1508553   2.7011673  74.2298903  36.2108553  14.0801673  60.4108903
  36.8668553  13.5051673  60.4258903  36.5998553  14.8291673  60.1898903
  36.3658553  14.1051673  60.3808903  51.9438553   3.1741673  61.6728903
  51.5978553   3.8521673  62.0988903  51.3078553   2.5761673  61.6888903
  51.7988553   3.1861673  61.7378903  47.2558553  15.9441673  67.7768903
  47.9998553  16.4001673  67.7668903  47.1348553  15.7301673  66.9398903
  47.3478553  15.9801673  67.6518903  36.8238553   2.2471673  73.3528903
  36.0458553   1.8571673  73.2808903  37.3148553   1.8351673  72.7618903
  36.7808553   2.1281673  73.2548903  37.0288553  12.5671673  63.9108903
  37.4518553  12.2111673  63.2368903  37.3528553  12.1451673  64.6028903
  37.1388553  12.4521673  63.9138903  40.2598553  15.4191673  63.2068903
  41.1038553  15.5231673  63.0118903  39.9628553  16.2371673  63.2748903
  40.3408553  15.5551673  63.1878903  44.0668553   4.8161673  61.2938903
  44.3538553   4.5841673  60.5038903  44.7988553   4.8951673  61.7628903
  44.2168553   4.7931673  61.2468903  44.7888553   5.1551673  56.4148903
  45.0698553   5.9431673  56.6638903  44.0128553   5.3201673  56.0518903
  44.7158553   5.2961673  56.3978903  48.8298553  17.1291673  57.8818903
  49.4948553  16.9811673  57.3368903  49.1898553  17.0461673  58.6718903
  48.9818553  17.0951673  57.9178903  39.2578553  16.6381673  68.9468903
  39.5498553  16.5711673  69.7668903  38.6318553  16.0331673  68.9018903
  39.2088553  16.5391673  69.0618903  34.1718553   2.7951673  70.9388903
  34.1678553   3.3821673  71.5848903  34.7658553   3.1071673  70.3818903
  34.2588553   2.9281673  70.9518903  46.5098553  13.1291673  71.4808903
  46.4758553  13.5111673  72.2648903  47.3638553  13.0871673  71.3098903
  46.6308553  13.1791673  71.5718903  43.6478553  13.3261673  56.2308903
  43.4668553  13.8711673  56.8878903  44.4138553  13.6161673  55.9298903
  43.7338553  13.4501673  56.2838903  37.2508553  14.8001673  68.0688903
  36.5528553  14.2921673  68.1948903  37.5108553  14.5951673  67.2608903
  37.1858553  14.6951673  67.9678903  44.4128553   3.5981673  58.5988903
  43.9048553   2.9361673  58.3448903  44.4648553   4.1021673  57.8888903
  44.3458553   3.5751673  58.4568903  44.9618553  16.2931673  68.9788903
  45.7298553  16.2131673  68.5728903  44.3788553  16.1721673  68.3408903
  44.9888553  16.2631673  68.8248903  51.2388553  16.8961673  61.8798903
  50.7838553  17.6131673  62.0808903  50.6248553  16.3251673  61.6378903
  51.0808553  16.9181673  61.8738903  43.0108553   2.9061673  63.0118903
  43.0848553   3.4741673  62.3538903  43.1318553   3.3981673  63.7218903
  43.0388553   3.0631673  63.0198903  48.2358553  12.7411673  61.4238903
  48.9368553  12.2591673  61.6128903  47.5758553  12.1721673  61.4688903
  48.2418553  12.5861673  61.4578903  38.6118553  13.6511673  70.6358903
  39.4528553  13.7141673  70.4138903  38.5748553  14.0481673  71.4118903
  38.7308553  13.7191673  70.7178903  40.5748553   9.1621673  65.3848903
  40.7468553   8.9521673  66.2138903  39.9198553   8.6281673  65.1688903
  40.5038553   9.0521673  65.4758903  46.8028553   3.0761673  68.8998903
  46.7078553   3.3951673  69.7058903  46.2098553   2.4371673  68.8618903
  46.7008553   3.0281673  69.0138903  41.3248553   9.1001673  67.9748903
  41.3778553   9.9471673  68.1768903  41.0398553   8.7301673  68.7118903
  41.2908553   9.1701673  68.1128903  47.5018553   9.7951673  67.1048903
  46.9878553   9.3831673  67.6758903  47.3758553  10.6391673  67.2858903
  47.4078553   9.8591673  67.2158903  34.1458553  13.4711673  74.1858903
  34.9018553  13.8201673  74.4438903  34.3228553  12.6181673  74.1288903
  34.2838553  13.3961673  74.2158903  50.5228553   3.2561673  70.0438903
  51.2948553   3.0311673  70.3808903  50.0478553   3.4731673  70.7438903
  50.5668553   3.2551673  70.1968903  38.0668553   2.5391673  63.0138903
  38.3388553   2.1091673  62.3058903  37.8908553   1.9031673  63.5848903
  38.0808553   2.3821673  62.9938903  50.7548553  10.2341673  57.2318903
  50.8738553   9.9471673  58.0468903  51.5618553  10.2551673  56.9018903
  50.8908553  10.1951673  57.3038903  37.8908553   9.9661673  62.5628903
  38.7418553   9.8861673  62.3898903  37.5338553   9.2841673  62.1508903
  37.9638553   9.8531673  62.4758903  36.6578553  16.6911673  63.7998903
  35.9848553  16.1931673  63.5548903  37.0608553  16.8761673  63.0488903
  36.6178553  16.6451673  63.6528903  36.2078553   3.6411673  66.0958903
  37.0508553   3.8611673  66.0528903  35.8188553   4.2141673  65.5648903
  36.2748553   3.7581673  66.0108903  52.9888553  14.7431673  71.4858903
  52.3068553  15.0531673  71.0388903  52.6198553  14.2851673  72.1308903
  52.8328553  14.7211673  71.5148903  48.6498553   6.7711673  56.8168903
  48.4298553   7.5021673  56.3948903  48.2018553   6.8221673  57.5638903
  48.5508553   6.8861673  56.8648903  40.2588553   9.9731673  60.7978903
  40.9718553  10.4681673  60.8878903  40.4808553   9.4061673  60.1718903
  40.3968553   9.9621673  60.7188903  34.4148553  11.6161673  64.1178903
  33.7478553  12.1041673  64.3938903  35.0948553  12.1611673  64.1468903
  34.4168553  11.7681673  64.1628903  42.0618553   5.3261673  74.2138903
  41.5778553   5.9031673  74.6558903  42.0338553   5.6211673  73.3928903
  41.9858553   5.4551673  74.1578903  53.1598553   6.0101673  68.8258903
  53.3748553   5.2101673  68.5498903  52.3098553   6.0701673  68.6368903
  53.0658553   5.9011673  68.7568903  34.4808553   8.3001673  59.2208903
  34.2958553   7.4611673  59.3728903  35.1398553   8.2641673  58.6508903
  34.5508553   8.1711673  59.1588903  44.7818553  13.6761673  63.1248903
  44.2588553  14.3101673  62.8318903  45.0918553  13.3121673  62.3958903
  44.7498553  13.7161673  62.9738903  34.6528553  12.4641673  58.7958903
  35.2048553  13.0331673  59.1598903  34.4208553  11.9491673  59.4608903
  34.6998553  12.4721673  58.9478903  38.8568553  11.4641673  65.8848903
  39.3238553  11.7531673  66.5628903  39.4288553  10.9861673  65.4308903
  39.0108553  11.4361673  65.9178903  47.2928553   3.4781673  63.6218903
  47.6368553   3.6301673  64.4088903  46.8398553   2.7401673  63.7348903
  47.2768553   3.3911673  63.7548903  34.4828553  10.9131673  56.4238903
  35.2388553  10.4811673  56.4818903  34.4978553  11.4451673  57.1148903
  34.5968553  10.9281673  56.5348903  35.4228553   9.1341673  64.4288903
  35.8538553   9.0051673  63.6818903  35.2178553   9.9821673  64.4028903
  35.4558553   9.2401673  64.3148903  41.7688553   2.6981673  58.0788903
  41.7668553   2.5811673  57.2138903  41.5878553   3.5461673  58.1708903
  41.7418553   2.8061673  57.9648903  50.8228553  15.1251673  69.5758903
  50.1518553  15.6391673  69.7938903  50.8858553  15.2251673  68.7118903
  50.7328553  15.2161673  69.4808903  39.5068553  12.6501673  62.7108903
  39.6328553  13.4931673  62.8978903  40.1748553  12.2511673  63.1068903
  39.6248553  12.7161673  62.7968903  37.6368553   6.1331673  72.5728903
  37.1008553   5.6271673  73.0408903  37.6568553   5.7431673  71.7928903
  37.5598553   6.0001673  72.5268903  38.1218553   5.5301673  57.7128903
  37.9938553   5.0821673  58.4508903  37.5398553   5.1881673  57.1608903
  38.0168553   5.4131673  57.7408903  38.2888553   7.3601673  64.3118903
  37.5078553   7.3011673  63.9288903  38.3608553   6.6081673  64.7488903
  38.1838553   7.2411673  64.3198903  38.7188553   7.0971673  67.7798903
  38.7438553   6.4221673  67.2288903  38.0728553   7.5931673  67.4678903
  38.6278553   7.0701673  67.6528903  48.6138553   4.8101673  66.1758903
  47.9518553   5.1381673  66.6388903  48.8008553   5.4441673  65.6068903
  48.5438553   4.9521673  66.1598903  42.8188553  15.8741673  67.1718903
  42.5418553  15.2331673  66.6488903  42.6108553  16.6001673  66.7338903
  42.7478553  15.8871673  67.0298903  46.8068553   2.7791673  59.6868903
  47.2968553   3.4961673  59.6098903  46.0168553   3.0401673  59.4238903
  46.7628553   2.9231673  59.6368903  36.5178553   8.4521673  73.3388903
  36.4808553   8.9531673  72.6248903  36.8488553   7.7001673  73.0438903
  36.5608553   8.4141673  73.1898903  48.1208553  10.6571673  71.5968903
  48.6048553  11.3751673  71.6948903  48.5148553  10.2301673  70.9458903
  48.2508553  10.7001673  71.5148903  42.4168553  13.5021673  72.7738903
  42.7708553  13.3241673  73.5508903  41.9808553  12.7731673  72.5748903
  42.4048553  13.3681673  72.8598903  43.3888553   4.2491673  65.4118903
  43.8688553   4.9481673  65.6198903  43.7618553   3.6021673  65.8628903
  43.5148553   4.2571673  65.5088903  45.5778553   7.4181673  57.6858903
  45.5698553   8.1401673  57.1958903  44.9388553   7.5531673  58.2628903
  45.4828553   7.5451673  57.6988903  50.5498553  11.2881673  61.6668903
  50.9058553  10.9381673  62.3818903  50.5418553  10.6271673  61.0968903
  50.6018553  11.1381673  61.6878903  46.5948553  14.3541673  65.5108903
  45.9918553  14.0581673  64.9538903  47.1398553  14.8061673  65.0018903
  46.5858553  14.3771673  65.3528903  46.6078553  11.2051673  64.9108903
  45.8108553  11.4291673  65.1848903  46.8658553  10.6111673  65.4958903
  46.5278553  11.1501673  65.0378903  42.7918553  15.5331673  57.7608903
  43.4138553  15.6961673  58.3508903  42.8278553  16.2241673  57.2288903
  42.8888553  15.6591673  57.7698903  49.8678553   9.2031673  69.7568903
  49.9228553   9.3281673  68.8948903  50.6208553   9.5231673  70.0588903
  49.9868553   9.2681673  69.6738903  46.0588553  14.5521673  74.0338903
  46.2228553  14.8351673  74.8428903  46.3218553  15.2131673  73.5288903
  46.1218553  14.6921673  74.0788903  37.2928553   8.0671673  58.5898903
  37.6168553   7.2881673  58.3678903  37.9388553   8.4351673  59.0448903
  37.4358553   8.0061673  58.6238903  45.5988553   9.0091673  69.3568903
  45.4438553   9.6191673  69.9608903  46.1328553   8.4511673  69.7628903
  45.6548553   9.0171673  69.5058903  43.9828553   7.4091673  60.0148903
  44.0418553   8.0591673  60.5938903  43.7938553   6.7131673  60.5058903
  43.9638553   7.4021673  60.1728903  49.2088553  11.7381673  65.8838903
  48.7298553  12.0361673  65.2178903  48.8528553  10.9621673  66.0618903
  49.0858553  11.6671673  65.8118903  38.4788553   1.9261673  56.5268903
  37.9678553   1.9791673  55.8208903  39.2628553   2.1661673  56.2308903
  38.5188553   1.9691673  56.3788903  43.2058553   9.4561673  64.4458903
  42.3588553   9.2621673  64.5268903  43.5298553   9.2911673  65.2388903
  43.1278553   9.4031673  64.5748903  39.9578553  16.1861673  55.3318903
  40.3968553  15.4891673  55.6198903  40.1648553  16.8101673  55.9048903
  40.0538553  16.1751673  55.4588903  37.0538553   9.1491673  66.7618903
  37.7758553   9.6371673  66.7248903  36.7838553   9.1191673  65.9328903
  37.1208553   9.2171673  66.6338903  40.2838553   4.3201673  63.4968903
  41.1298553   4.1301673  63.5948903  39.9138553   3.5431673  63.3588903
  40.3538553   4.1771673  63.4908903  52.9008553  15.9041673  57.8238903
  53.5948553  15.4371673  57.5758903  52.3618553  15.3061673  58.1608903
  52.9238553  15.7461673  57.8368903  35.1048553   5.6581673  60.1518903
  35.5938553   5.3661673  60.8128903  35.2338553   5.0651673  59.5248903
  35.1958553   5.5271673  60.1568903  50.1398553   8.6801673  67.0028903
  50.1328553   7.9041673  67.4008903  49.2988553   8.9141673  66.9958903
  50.0148553   8.6001673  67.0608903  39.6298553   7.0921673  55.6378903
  39.0198553   6.6871673  56.1118903  39.2438553   7.2101673  54.8648903
  39.4828553   7.0491673  55.5938903  36.4488553  10.2011673  71.0398903
  36.0278553   9.6831673  70.4788903  36.0968553  10.9871673  70.8968903
  36.3348553  10.2411673  70.9358903  51.3958553   8.7511673  64.4398903
  51.1098553   9.1521673  65.1598903  52.2558553   8.6891673  64.5668903
  51.4808553   8.8011673  64.5648903  41.0848553   5.5531673  58.3478903
  41.3568553   6.3791673  58.4148903  40.2218553   5.6281673  58.2518903
  40.9978553   5.6861673  58.3428903  49.0578553   2.6751673  72.9798903
  48.5328553   3.1341673  73.5038903  48.6968553   1.8801673  72.9738903
  48.9268553   2.6251673  73.0558903  52.5268553  14.3841673  64.9688903
  52.8168553  14.6411673  64.1878903  53.2218553  14.4801673  65.4878903
  52.6728553  14.4361673  64.9298903  47.5498553   6.2441673  73.0558903
  47.6228553   6.3481673  73.9188903  46.9158553   6.8021673  72.8348903
  47.4668553   6.3421673  73.1508903  49.8178553   6.5631673  71.4208903
  50.1368553   7.3491673  71.6238903  49.4478553   6.2931673  72.1638903
  49.8108553   6.6391673  71.5608903  49.1318553  12.9871673  56.9508903
  49.4658553  12.1811673  56.9858903  48.3768553  12.9151673  57.3808903
  49.0698553  12.8571673  57.0198903  49.6138553   4.8211673  62.6098903
  48.8688553   4.4981673  62.9278903  49.6158553   5.6471673  62.8898903
  49.5038553   4.8951673  62.6978903  52.5158553   7.1051673  74.1558903
  52.4638553   6.7641673  73.3548903  53.2528553   7.5721673  74.1338903
  52.6168553   7.1241673  74.0338903  52.0538553  10.7811673  70.3618903
  52.6818553  10.2321673  70.1058903  51.9928553  11.3461673  69.6998903
  52.1378553  10.7841673  70.2258903  46.5058553  10.8621673  56.3538903
  47.1898553  10.3481673  56.1848903  46.0888553  10.9081673  55.5888903
  46.5448553  10.7931673  56.2158903  41.1878553  12.0121673  67.6578903
  40.8898553  12.6041673  68.2248903  41.2428553  12.4541673  66.9088903
  41.1518553  12.1651673  67.6308903  39.1668553  10.9621673  71.0558903
  38.3608553  10.6721673  71.2228903  39.0778553  11.8301673  71.0618903
  39.0348553  11.0471673  71.0808903  43.7038553   8.4351673  67.1488903
  44.1798553   8.8091673  67.7768903  42.8808553   8.5691673  67.4078903
  43.6528553   8.5101673  67.2798903  40.4138553   4.0381673  69.8898903
  40.5748553   3.2941673  70.3168903  40.3688553   3.7891673  69.0548903
  40.4308553   3.8911673  69.8298903  42.9678553  15.8281673  62.3768903
  43.5138553  16.5071673  62.4308903  42.6178553  15.9101673  61.5818903
  42.9968553  15.9411673  62.2668903  41.1508553  14.0561673  65.7658903
  40.5268553  14.6381673  65.5838903  41.3988553  13.7701673  64.9798903
  41.0948553  14.1001673  65.6228903  45.4598553  10.6901673  72.7548903
  46.2168553  10.9761673  72.4288903  44.9128553  10.7421673  72.0768903
  45.4908553  10.7401673  72.6058903  49.3688553  13.2401673  71.2588903
  49.7148553  13.5101673  72.0128903  49.6628553  13.8221673  70.6788903
  49.4638553  13.3661673  71.2848903  51.2318553   5.3861673  56.5978903
  51.6098553   6.0631673  56.1978903  50.3898553   5.6101673  56.6288903
  51.1628553   5.5191673  56.5428903  42.7448553   8.8321673  55.6808903
  41.9398553   8.6551673  55.3958903  42.7118553   9.6831673  55.8728903
  42.6208553   8.9311673  55.6678903  38.6748553   4.8991673  65.8308903
  39.1148553   4.7961673  65.0848903  39.2198553   4.5861673  66.4358903
  38.8198553   4.8381673  65.8098903  46.6908553   4.0011673  71.4228903
  46.0428553   4.4711673  71.7708903  47.2558553   3.9121673  72.0818903
  46.6788553   4.0571673  71.5718903  46.3788553   5.5381673  67.7208903
  46.6808553   5.9581673  68.4238903  46.4148553   4.6981673  67.9528903
  46.4288553   5.4761673  67.8588903  43.8038553  15.7051673  71.6458903
  44.2818553  15.1051673  71.2298903  43.4528553  15.2621673  72.3108903
  43.8228553  15.5511673  71.6828903  48.9268553   4.9851673  59.9728903
  49.1338553   4.7841673  60.7968903  49.6828553   5.2531673  59.6308903
  49.0688553   4.9951673  60.0438903  50.3918553   9.0121673  59.8268903
  50.8678553   8.2831673  59.7788903  49.5708553   8.7261673  59.7508903
  50.3408553   8.8621673  59.8078903  43.8628553  10.9241673  70.6658903
  43.0678553  10.8601673  71.0168903  43.9338553  11.7711673  70.4708903
  43.7558553  11.0391673  70.6888903  39.6928553  17.1311673  65.9828903
  39.7038553  17.1901673  66.8528903  39.2678553  16.3841673  65.8328903
  39.6318553  17.0291673  66.0888903  37.8508553   3.0261673  59.1378903
  37.9768553   2.6971673  58.3398903  37.0388553   2.7771673  59.3368903
  37.7498553   2.9411673  59.0498903  46.6078553  10.1791673  62.1818903
  46.6838553  10.5201673  62.9808903  46.7768553   9.3321673  62.3028903
  46.6438553  10.1041673  62.3178903  44.1298553   9.4531673  61.7468903
  43.8318553   9.1381673  62.5038903  44.8248553   9.9261673  61.9818903
  44.1888553   9.4761673  61.8938903  44.3518553  13.5711673  69.7738903
  45.0388553  13.4571673  70.2988903  44.4858553  14.3621673  69.4298903
  44.4728553  13.6711673  69.8008903  52.5278553   6.1801673  71.5848903
  51.6728553   6.0581673  71.7108903  52.6808553   5.7851673  70.8218903
  52.4238553   6.1031673  71.4908903  47.0408553   6.8451673  70.1608903
  46.7858553   6.1261673  70.5828903  47.8618553   6.9611673  70.4308903
  47.1248553   6.7561673  70.2628903  36.4568553  16.6291673  71.4248903
  35.8028553  16.0601673  71.5228903  36.0818553  17.4021673  71.5758903
  36.3048553  16.6591673  71.4618903  44.9748553   8.0351673  73.3478903
  45.2978553   8.7211673  72.9158903  44.2708553   8.3581673  73.7498903
  44.9178553   8.1841673  73.3428903  48.0588553  16.4091673  64.2768903
  47.6078553  17.0521673  64.6558903  48.7668553  16.3301673  64.7818903
  48.0968553  16.4921673  64.4078903  44.7598553  11.4991673  67.2068903
  44.0658553  11.9011673  67.5498903  45.4368553  11.9321673  67.5458903
  44.7568553  11.6221673  67.3078903  50.1368553  14.0921673  73.7868903
  50.9128553  13.7021673  73.8698903  49.6678553  13.7561673  74.4418903
  50.1818553  13.9851673  73.8958903  37.8278553   5.0371673  69.5538903
  38.2028553   5.6561673  69.0668903  38.5018553   4.5631673  69.8388903
  37.9828553   5.0591673  69.5238903  35.6028553   3.4851673  68.8288903
  35.6798553   3.3161673  67.9758903  36.3488553   3.8911673  69.0258903
  35.7238553   3.5201673  68.7318903  51.1618553   6.1251673  59.2688903
  51.2648553   6.0671673  58.4048903  51.9028553   5.7931673  59.5868903
  51.2868553   6.0681673  59.1878903  45.0818553  13.0901673  60.3758903
  44.8768553  13.9231673  60.2168903  44.3068553  12.7081673  60.4978903
  44.9368553  13.1571673  60.3708903  50.2638553   6.2711673  68.6248903
  50.2618553   5.4081673  68.7488903  50.3308553   6.5951673  69.4318903
  50.2738553   6.1911673  68.7618903  34.9998553   8.7111673  69.0528903
  35.3198553   8.9301673  68.2718903  34.8998553   7.8461673  68.9978903
  35.0318553   8.6161673  68.9298903  36.4558553   4.6471673  55.6708903
  35.7838553   4.6611673  56.2268903  36.5508553   3.7991673  55.4868903
  36.3708553   4.5241673  55.7258903  40.4438553  13.3521673  56.7848903
  40.8848553  13.4321673  57.5328903  39.6388553  13.1361673  57.0428903
  40.3898553  13.3321673  56.9338903  48.7348553   1.7771673  66.0608903
  49.5898553   1.8761673  66.2058903  48.3658553   2.3301673  66.6258903
  48.8068553   1.8741673  66.1658903  39.7628553   8.0031673  70.4378903
  39.3668553   8.7771673  70.5128903  39.3568553   7.6301673  69.7618903
  39.6448553   8.0621673  70.3488903  49.0388553   7.0571673  64.5518903
  49.7048553   7.5981673  64.7118903  48.6938553   7.3681673  63.8128903
  49.0858553   7.1831673  64.4668903  49.3518553  15.1231673  60.3588903
  49.1778553  14.4691673  60.9088903  50.0648553  14.8521673  59.9358903
  49.4318553  14.9861673  60.3778903  37.7728553  12.4221673  57.3858903
  37.5288553  12.1151673  58.1658903  37.7398553  11.7191673  56.8698903
  37.7318553  12.2731673  57.4248903  40.5918553  10.6671673  56.1288903
  39.7738553  10.3991673  56.2688903  40.5638553  11.5191673  56.3138903
  40.4668553  10.7541673  56.1768903  47.0268553  12.5761673  68.0498903
  47.2328553  12.8771673  68.8418903  46.9658553  13.2981673  67.5648903
  47.0478553  12.7271673  68.0948903  46.5608553  16.7901673  72.2958903
  45.8078553  16.7721673  71.8548903  46.7288553  17.6421673  72.3798903
  46.4748553  16.9131673  72.2428903  41.7978553   6.0571673  71.4658903
  41.4758553   5.4811673  70.8958903  41.4388553   6.8121673  71.2198903
  41.6978553   6.0831673  71.3458903  51.8388553  11.2151673  67.5078903
  51.8068553  10.3531673  67.3728903  51.1458553  11.5171673  67.0738903
  51.7318553  11.1321673  67.4238903  40.2328553  16.4131673  71.7138903
  40.2738553  16.5391673  72.5768903  40.8838553  15.8531673  71.5578903
  40.3348553  16.3491673  71.8188903  49.9438553  14.4751673  66.3048903
  50.4708553  14.3921673  65.6138903  49.5528553  13.6971673  66.3588903
  49.9638553  14.3481673  66.2108903  37.8258553  14.7961673  73.0738903
  38.4208553  15.2271673  73.5458903  37.4618553  15.4201673  72.5848903
  37.8598553  14.9521673  73.0708903  45.8168553   5.7271673  63.0058903
  46.3678553   5.1201673  63.3058903  45.3918553   5.9901673  63.7208903
  45.8358553   5.6761673  63.1548903  36.0648553   4.3771673  62.4918903
  35.6968553   4.6791673  63.2228903  36.5988553   3.7481673  62.7758903
  36.0888553   4.3291673  62.6418903  35.7528553  12.7851673  70.0028903
  35.1788553  13.2011673  70.5118903  36.4858553  13.2501673  70.0978903
  35.7768553  12.9151673  70.0918903  47.7868553   7.5581673  59.5678903
  47.8548553   6.7081673  59.7488903  46.9638553   7.6441673  59.2898903
  47.6748553   7.4451673  59.5538903  37.5388553  16.0521673  58.7778903
  37.3938553  16.2081673  57.9318903  38.4048553  16.1311673  58.8558903
  37.6458553  16.0871673  58.6648903  41.7058553   8.4491673  58.5058903
  41.8058553   8.5881673  57.6508903  42.5238553   8.3891673  58.8018903
  41.8408553   8.4601673  58.4228903  50.8658553  16.5131673  55.9858903
  51.5028553  16.3791673  56.5668903  50.5248553  15.7191673  55.8688903
  50.9098553  16.3761673  56.0538903  51.0608553   8.9311673  72.7188903
  51.6948553   8.7611673  73.2928903  51.4778553   9.3341673  72.0668903
  51.2158553   8.9661673  72.7078903  46.9408553  12.7781673  58.3078903
  46.6898553  12.6501673  59.1338903  46.6238553  12.0831673  57.8868903
  46.8568553  12.6571673  58.3678903  51.6858553   3.4951673  73.4568903
  51.4898553   4.1391673  74.0118903  50.9638553   3.0051673  73.4488903
  51.5508553   3.5181673  73.5378903  51.5848553   4.4361673  66.4278903
  50.7518553   4.6861673  66.3558903  51.5288553   3.5961673  66.6568903
  51.4538553   4.3491673  66.4508903  48.4718553   9.0421673  74.0738903
  49.3428553   9.0061673  74.0378903  48.2528553   9.4621673  73.3418903
  48.5688553   9.0981673  73.9608903  38.2258553  14.8671673  65.2548903
  38.1468553  14.0571673  64.9388903  37.7818553  15.3541673  64.6828903
  38.1488553  14.8191673  65.1238903  43.8268553  10.9861673  57.7378903
  44.5438553  10.6391673  57.3818903  43.7928553  11.7861673  57.3898903
  43.9278553  11.0531673  57.6338903  35.7978553  17.1111673  68.8358903
  36.2908553  17.0551673  69.5538903  35.9858553  16.3781673  68.4008903
  35.8988553  16.9941673  68.8778903  45.0448553   6.5431673  46.6476493
  44.5208553   7.1391673  47.0106493  45.4418553   6.1751673  47.3316493
  45.0258553   6.5771673  46.8026493  34.9138553  10.6831673  42.1036493
  34.4728553  10.8011673  42.8466493  34.6308553   9.9081673  41.8186493
  34.8068553  10.5861673  42.1716493  51.1888553  13.9841673  39.6186493
  51.8898553  13.4651673  39.6146493  50.6018553  13.5391673  39.1496493
  51.2058553  13.8411673  39.5486493  34.6568553   4.4751673  38.6106493
  33.8788553   4.6371673  38.2506493  34.6958553   3.6041673  38.6326493
  34.5478553   4.3701673  38.5606493  37.7958553   9.7381673  37.2826493
  37.4038553   9.3671673  36.5966493  37.7158553   9.1401673  37.9116493
  37.7258553   9.5951673  37.2736493  47.7158553   7.6101673  43.3236493
  47.7958553   7.6141673  42.4546493  47.1318553   6.9781673  43.4726493
  47.6408553   7.5171673  43.2176493  37.4228553  11.3791673  41.1826493
  38.0308553  11.2091673  41.7856493  36.6718553  11.2391673  41.6036493
  37.4018553  11.3331673  41.3336493  36.3138553  14.4701673  37.2596493
  36.7808553  14.5541673  36.5276493  36.7688553  13.8921673  37.7286493
  36.4498553  14.3971673  37.2206493  34.8538553  13.4181673  48.3586493
  34.9828553  13.1381673  49.1746493  34.2438553  12.8771673  48.0496493
  34.7828553  13.2971673  48.4336493  41.4278553  10.9431673  53.4256493
  41.1918553  10.9401673  54.2656493  40.6798553  10.7951673  53.0016493
  41.2818553  10.9201673  53.4866493  36.2998553   7.9391673  42.5606493
  35.8378553   7.5471673  41.9336493  36.9998553   7.4261673  42.6526493
  36.3348553   7.8061673  42.4816493  40.8078553   3.5491673  47.9076493
  41.4858553   3.5671673  47.3586493  40.7628553   2.7131673  48.1526493
  40.9008553   3.4281673  47.8626493  41.4098553  14.1351673  50.6886493
  41.5478553  14.8951673  50.2816493  42.2008553  13.7701673  50.7156493
  41.5468553  14.1941673  50.6326493  38.3008553   6.0391673  42.5836493
  39.1178553   5.8521673  42.8266493  37.8238553   5.4251673  42.9796493
  38.3508553   5.9211673  42.6786493  42.5048553  12.0201673  45.1936493
  42.8528553  11.2211673  45.2236493  43.1698553  12.5241673  44.9386493
  42.6548553  11.9761673  45.1606493  42.5618553  11.4691673  41.4046493
  42.8928553  10.8251673  41.8906493  42.8018553  11.2581673  40.5936493
  42.6458553  11.3431673  41.3566493  44.5298553   5.6001673  52.7436493
  43.6818553   5.5011673  52.5656493  44.5588553   6.3451673  53.1976493
  44.4088553   5.6961673  52.7846493  46.5498553   3.2011673  36.3716493
  46.0998553   3.8821673  36.6786493  46.6638553   2.6971673  37.0746493
  46.5008553   3.2271673  36.5206493  34.7558553   5.7001673  45.5736493
  34.4998553   6.5311673  45.4986493  34.0918553   5.3171673  45.9906493
  34.6198553   5.7661673  45.6246493  34.6658553  15.4101673  43.4736493
  34.0738553  15.9681673  43.1606493  35.0918553  15.1411673  42.7616493
  34.6418553  15.4521673  43.3226493  40.5058553  13.2541673  40.9536493
  39.9268553  12.9791673  41.5456493  41.1298553  12.6451673  40.9786493
  40.5128553  13.1241673  41.0446493  46.6488553  15.5421673  38.4756493
  47.3758553  16.0141673  38.5776493  46.8778553  14.7481673  38.7556493
  46.7908553  15.4951673  38.5326493  44.8168553  15.9341673  40.4656493
  45.0308553  16.4611673  41.1276493  45.5838553  15.7601673  40.0866493
  44.9618553  15.9861673  40.5076493  41.0908553   2.6501673  55.3626493
  41.2078553   2.1961673  54.6266493  41.3788553   3.4481673  55.1596493
  41.1508553   2.7011673  55.2236493  36.2108553  14.0801673  41.4046493
  36.8668553  13.5051673  41.4196493  36.5998553  14.8291673  41.1836493
  36.3658553  14.1051673  41.3746493  51.9438553   3.1741673  42.6666493
  51.5978553   3.8521673  43.0926493  51.3078553   2.5761673  42.6826493
  51.7988553   3.1861673  42.7316493  47.2558553  15.9441673  48.7706493
  47.9998553  16.4001673  48.7606493  47.1348553  15.7301673  47.9336493
  47.3478553  15.9801673  48.6456493  36.8238553   2.2471673  54.3466493
  36.0458553   1.8571673  54.2746493  37.3148553   1.8351673  53.7556493
  36.7808553   2.1281673  54.2486493  37.0288553  12.5671673  44.9046493
  37.4518553  12.2111673  44.2306493  37.3528553  12.1451673  45.5966493
  37.1388553  12.4521673  44.9076493  40.2598553  15.4191673  44.2006493
  41.1038553  15.5231673  44.0056493  39.9628553  16.2371673  44.2686493
  40.3408553  15.5551673  44.1816493  44.0668553   4.8161673  42.2876493
  44.3538553   4.5841673  41.4976493  44.7988553   4.8951673  42.7566493
  44.2168553   4.7931673  42.2406493  44.7888553   5.1551673  37.4086493
  45.0698553   5.9431673  37.6576493  44.0128553   5.3201673  37.0456493
  44.7158553   5.2961673  37.3916493  48.8298553  17.1291673  38.8756493
  49.4948553  16.9811673  38.3306493  49.1898553  17.0461673  39.6656493
  48.9818553  17.0951673  38.9116493  39.2578553  16.6381673  49.9406493
  39.5498553  16.5711673  50.7606493  38.6318553  16.0331673  49.8956493
  39.2088553  16.5391673  50.0556493  34.1718553   2.7951673  51.9326493
  34.1678553   3.3821673  52.5786493  34.7658553   3.1071673  51.3756493
  34.2588553   2.9281673  51.9456493  46.5098553  13.1291673  52.4746493
  46.4758553  13.5111673  53.2586493  47.3638553  13.0871673  52.3036493
  46.6308553  13.1791673  52.5656493  43.6478553  13.3261673  37.2246493
  43.4668553  13.8711673  37.8816493  44.4138553  13.6161673  36.9236493
  43.7338553  13.4501673  37.2776493  37.2508553  14.8001673  49.0626493
  36.5528553  14.2921673  49.1886493  37.5108553  14.5951673  48.2546493
  37.1858553  14.6951673  48.9616493  44.4128553   3.5981673  39.5926493
  43.9048553   2.9361673  39.3386493  44.4648553   4.1021673  38.8826493
  44.3458553   3.5751673  39.4506493  44.9618553  16.2931673  49.9726493
  45.7298553  16.2131673  49.5666493  44.3788553  16.1721673  49.3346493
  44.9888553  16.2631673  49.8186493  51.2388553  16.8961673  42.8736493
  50.7838553  17.6131673  43.0746493  50.6248553  16.3251673  42.6316493
  51.0808553  16.9181673  42.8676493  43.0108553   2.9061673  44.0056493
  43.0848553   3.4741673  43.3476493  43.1318553   3.3981673  44.7156493
  43.0388553   3.0631673  44.0136493  48.2358553  12.7411673  42.4176493
  48.9368553  12.2591673  42.6066493  47.5758553  12.1721673  42.4626493
  48.2418553  12.5861673  42.4516493  38.6118553  13.6511673  51.6296493
  39.4528553  13.7141673  51.4076493  38.5748553  14.0481673  52.4056493
  38.7308553  13.7191673  51.7116493  40.5748553   9.1621673  46.3786493
  40.7468553   8.9521673  47.2076493  39.9198553   8.6281673  46.1626493
  40.5038553   9.0521673  46.4696493  46.8028553   3.0761673  49.8936493
  46.7078553   3.3951673  50.6996493  46.2098553   2.4371673  49.8556493
  46.7008553   3.0281673  50.0076493  41.3248553   9.1001673  48.9686493
  41.3778553   9.9471673  49.1706493  41.0398553   8.7301673  49.7056493
  41.2908553   9.1701673  49.1066493  47.5018553   9.7951673  48.0986493
  46.9878553   9.3831673  48.6696493  47.3758553  10.6391673  48.2796493
  47.4078553   9.8591673  48.2096493  34.1458553  13.4711673  55.1796493
  34.9018553  13.8201673  55.4376493  34.3228553  12.6181673  55.1226493
  34.2838553  13.3961673  55.2096493  50.5228553   3.2561673  51.0376493
  51.2948553   3.0311673  51.3746493  50.0478553   3.4731673  51.7376493
  50.5668553   3.2551673  51.1906493  38.0668553   2.5391673  44.0076493
  38.3388553   2.1091673  43.2996493  37.8908553   1.9031673  44.5786493
  38.0808553   2.3821673  43.9876493  50.7548553  10.2341673  38.2256493
  50.8738553   9.9471673  39.0406493  51.5618553  10.2551673  37.8956493
  50.8908553  10.1951673  38.2976493  37.8908553   9.9661673  43.5566493
  38.7418553   9.8861673  43.3836493  37.5338553   9.2841673  43.1446493
  37.9638553   9.8531673  43.4696493  36.6578553  16.6911673  44.7936493
  35.9848553  16.1931673  44.5486493  37.0608553  16.8761673  44.0426493
  36.6178553  16.6451673  44.6466493  36.2078553   3.6411673  47.0896493
  37.0508553   3.8611673  47.0466493  35.8188553   4.2141673  46.5586493
  36.2748553   3.7581673  47.0046493  52.9888553  14.7431673  52.4796493
  52.3068553  15.0531673  52.0326493  52.6198553  14.2851673  53.1246493
  52.8328553  14.7211673  52.5086493  48.6498553   6.7711673  37.8106493
  48.4298553   7.5021673  37.3886493  48.2018553   6.8221673  38.5576493
  48.5508553   6.8861673  37.8586493  40.2588553   9.9731673  41.7916493
  40.9718553  10.4681673  41.8816493  40.4808553   9.4061673  41.1656493
  40.3968553   9.9621673  41.7126493  34.4148553  11.6161673  45.1116493
  33.7478553  12.1041673  45.3876493  35.0948553  12.1611673  45.1406493
  34.4168553  11.7681673  45.1566493  42.0618553   5.3261673  55.2076493
  41.5778553   5.9031673  55.6496493  42.0338553   5.6211673  54.3866493
  41.9858553   5.4551673  55.1516493  53.1598553   6.0101673  49.8196493
  53.3748553   5.2101673  49.5436493  52.3098553   6.0701673  49.6306493
  53.0658553   5.9011673  49.7506493  34.4808553   8.3001673  40.2146493
  34.2958553   7.4611673  40.3666493  35.1398553   8.2641673  39.6446493
  34.5508553   8.1711673  40.1526493  44.7818553  13.6761673  44.1186493
  44.2588553  14.3101673  43.8256493  45.0918553  13.3121673  43.3896493
  44.7498553  13.7161673  43.9676493  34.6528553  12.4641673  39.7896493
  35.2048553  13.0331673  40.1536493  34.4208553  11.9491673  40.4546493
  34.6998553  12.4721673  39.9416493  38.8568553  11.4641673  46.8786493
  39.3238553  11.7531673  47.5566493  39.4288553  10.9861673  46.4246493
  39.0108553  11.4361673  46.9116493  47.2928553   3.4781673  44.6156493
  47.6368553   3.6301673  45.4026493  46.8398553   2.7401673  44.7286493
  47.2768553   3.3911673  44.7486493  34.4828553  10.9131673  37.4176493
  35.2388553  10.4811673  37.4756493  34.4978553  11.4451673  38.1086493
  34.5968553  10.9281673  37.5286493  35.4228553   9.1341673  45.4226493
  35.8538553   9.0051673  44.6756493  35.2178553   9.9821673  45.3966493
  35.4558553   9.2401673  45.3086493  41.7688553   2.6981673  39.0726493
  41.7668553   2.5811673  38.2076493  41.5878553   3.5461673  39.1646493
  41.7418553   2.8061673  38.9586493  50.8228553  15.1251673  50.5696493
  50.1518553  15.6391673  50.7876493  50.8858553  15.2251673  49.7056493
  50.7328553  15.2161673  50.4746493  39.5068553  12.6501673  43.7046493
  39.6328553  13.4931673  43.8916493  40.1748553  12.2511673  44.1006493
  39.6248553  12.7161673  43.7906493  37.6368553   6.1331673  53.5666493
  37.1008553   5.6271673  54.0346493  37.6568553   5.7431673  52.7866493
  37.5598553   6.0001673  53.5206493  38.1218553   5.5301673  38.7066493
  37.9938553   5.0821673  39.4446493  37.5398553   5.1881673  38.1546493
  38.0168553   5.4131673  38.7346493  38.2888553   7.3601673  45.3056493
  37.5078553   7.3011673  44.9226493  38.3608553   6.6081673  45.7426493
  38.1838553   7.2411673  45.3136493  38.7188553   7.0971673  48.7736493
  38.7438553   6.4221673  48.2226493  38.0728553   7.5931673  48.4616493
  38.6278553   7.0701673  48.6466493  48.6138553   4.8101673  47.1696493
  47.9518553   5.1381673  47.6326493  48.8008553   5.4441673  46.6006493
  48.5438553   4.9521673  47.1536493  42.8188553  15.8741673  48.1656493
  42.5418553  15.2331673  47.6426493  42.6108553  16.6001673  47.7276493
  42.7478553  15.8871673  48.0236493  46.8068553   2.7791673  40.6806493
  47.2968553   3.4961673  40.6036493  46.0168553   3.0401673  40.4176493
  46.7628553   2.9231673  40.6306493  36.5178553   8.4521673  54.3326493
  36.4808553   8.9531673  53.6186493  36.8488553   7.7001673  54.0376493
  36.5608553   8.4141673  54.1836493  48.1208553  10.6571673  52.5906493
  48.6048553  11.3751673  52.6886493  48.5148553  10.2301673  51.9396493
  48.2508553  10.7001673  52.5086493  42.4168553  13.5021673  53.7676493
  42.7708553  13.3241673  54.5446493  41.9808553  12.7731673  53.5686493
  42.4048553  13.3681673  53.8536493  43.3888553   4.2491673  46.4056493
  43.8688553   4.9481673  46.6136493  43.7618553   3.6021673  46.8566493
  43.5148553   4.2571673  46.5026493  45.5778553   7.4181673  38.6796493
  45.5698553   8.1401673  38.1896493  44.9388553   7.5531673  39.2566493
  45.4828553   7.5451673  38.6926493  50.5498553  11.2881673  42.6606493
  50.9058553  10.9381673  43.3756493  50.5418553  10.6271673  42.0906493
  50.6018553  11.1381673  42.6816493  46.5948553  14.3541673  46.5046493
  45.9918553  14.0581673  45.9476493  47.1398553  14.8061673  45.9956493
  46.5858553  14.3771673  46.3466493  46.6078553  11.2051673  45.9046493
  45.8108553  11.4291673  46.1786493  46.8658553  10.6111673  46.4896493
  46.5278553  11.1501673  46.0316493  40.4998553  16.0171673  40.3526493
  40.3528553  15.2411673  40.7236493  41.1888553  15.8701673  39.8376493
  40.5798553  15.8801673  40.3316493  49.8678553   9.2031673  50.7506493
  49.9228553   9.3281673  49.8886493  50.6208553   9.5231673  51.0526493
  49.9868553   9.2681673  50.6676493  46.0588553  14.5521673  55.0276493
  46.2228553  14.8351673  55.8366493  46.3218553  15.2131673  54.5226493
  46.1218553  14.6921673  55.0726493  37.2928553   8.0671673  39.5836493
  37.6168553   7.2881673  39.3616493  37.9388553   8.4351673  40.0386493
  37.4358553   8.0061673  39.6176493  45.5988553   9.0091673  50.3506493
  45.4438553   9.6191673  50.9546493  46.1328553   8.4511673  50.7566493
  45.6548553   9.0171673  50.4996493  43.9828553   7.4091673  41.0086493
  44.0418553   8.0591673  41.5876493  43.7938553   6.7131673  41.4996493
  43.9638553   7.4021673  41.1666493  49.2088553  11.7381673  46.8776493
  48.7298553  12.0361673  46.2116493  48.8528553  10.9621673  47.0556493
  49.0858553  11.6671673  46.8056493  38.4788553   1.9261673  37.5206493
  37.9678553   1.9791673  36.8146493  39.2628553   2.1661673  37.2246493
  38.5188553   1.9691673  37.3726493  43.2058553   9.4561673  45.4396493
  42.3588553   9.2621673  45.5206493  43.5298553   9.2911673  46.2326493
  43.1278553   9.4031673  45.5686493  39.9578553  16.1861673  36.3256493
  40.3968553  15.4891673  36.6136493  40.1648553  16.8101673  36.8986493
  40.0538553  16.1751673  36.4526493  37.0538553   9.1491673  47.7556493
  37.7758553   9.6371673  47.7186493  36.7838553   9.1191673  46.9266493
  37.1208553   9.2171673  47.6276493  40.2838553   4.3201673  44.4906493
  41.1298553   4.1301673  44.5886493  39.9138553   3.5431673  44.3526493
  40.3538553   4.1771673  44.4846493  52.9008553  15.9041673  38.8176493
  53.5948553  15.4371673  38.5696493  52.3618553  15.3061673  39.1546493
  52.9238553  15.7461673  38.8306493  35.1048553   5.6581673  41.1456493
  35.5938553   5.3661673  41.8066493  35.2338553   5.0651673  40.5186493
  35.1958553   5.5271673  41.1506493  50.1398553   8.6801673  47.9966493
  50.1328553   7.9041673  48.3946493  49.2988553   8.9141673  47.9896493
  50.0148553   8.6001673  48.0546493  39.6298553   7.0921673  36.6316493
  39.0198553   6.6871673  37.1056493  39.2438553   7.2101673  35.8586493
  39.4828553   7.0491673  36.5876493  36.4488553  10.2011673  52.0336493
  36.0278553   9.6831673  51.4726493  36.0968553  10.9871673  51.8906493
  36.3348553  10.2411673  51.9296493  51.3958553   8.7511673  45.4336493
  51.1098553   9.1521673  46.1536493  52.2558553   8.6891673  45.5606493
  51.4808553   8.8011673  45.5586493  41.0848553   5.5531673  39.3416493
  41.3568553   6.3791673  39.4086493  40.2218553   5.6281673  39.2456493
  40.9978553   5.6861673  39.3366493  49.0578553   2.6751673  53.9736493
  48.5328553   3.1341673  54.4976493  48.6968553   1.8801673  53.9676493
  48.9268553   2.6251673  54.0496493  52.5268553  14.3841673  45.9626493
  52.8168553  14.6411673  45.1816493  53.2218553  14.4801673  46.4816493
  52.6728553  14.4361673  45.9236493  47.5498553   6.2441673  54.0496493
  47.6228553   6.3481673  54.9126493  46.9158553   6.8021673  53.8286493
  47.4668553   6.3421673  54.1446493  49.8178553   6.5631673  52.4146493
  50.1368553   7.3491673  52.6176493  49.4478553   6.2931673  53.1576493
  49.8108553   6.6391673  52.5546493  49.1318553  12.9871673  37.9446493
  49.4658553  12.1811673  37.9796493  48.3768553  12.9151673  38.3746493
  49.0698553  12.8571673  38.0136493  49.6138553   4.8211673  43.6036493
  48.8688553   4.4981673  43.9216493  49.6158553   5.6471673  43.8836493
  49.5038553   4.8951673  43.6916493  52.5158553   7.1051673  55.1496493
  52.4638553   6.7641673  54.3486493  53.2528553   7.5721673  55.1276493
  52.6168553   7.1241673  55.0276493  52.0538553  10.7811673  51.3556493
  52.6818553  10.2321673  51.0996493  51.9928553  11.3461673  50.6936493
  52.1378553  10.7841673  51.2196493  46.5058553  10.8621673  37.3476493
  47.1898553  10.3481673  37.1786493  46.0888553  10.9081673  36.5826493
  46.5448553  10.7931673  37.2096493  41.1878553  12.0121673  48.6516493
  40.8898553  12.6041673  49.2186493  41.2428553  12.4541673  47.9026493
  41.1518553  12.1651673  48.6246493  39.1668553  10.9621673  52.0496493
  38.3608553  10.6721673  52.2166493  39.0778553  11.8301673  52.0556493
  39.0348553  11.0471673  52.0746493  43.7038553   8.4351673  48.1426493
  44.1798553   8.8091673  48.7706493  42.8808553   8.5691673  48.4016493
  43.6528553   8.5101673  48.2736493  40.4138553   4.0381673  50.8836493
  40.5748553   3.2941673  51.3106493  40.3688553   3.7891673  50.0486493
  40.4308553   3.8911673  50.8236493  42.9678553  15.8281673  43.3706493
  43.5138553  16.5071673  43.4246493  42.6178553  15.9101673  42.5756493
  42.9968553  15.9411673  43.2606493  41.1508553  14.0561673  46.7596493
  40.5268553  14.6381673  46.5776493  41.3988553  13.7701673  45.9736493
  41.0948553  14.1001673  46.6166493  45.4598553  10.6901673  53.7486493
  46.2168553  10.9761673  53.4226493  44.9128553  10.7421673  53.0706493
  45.4908553  10.7401673  53.5996493  49.3688553  13.2401673  52.2526493
  49.7148553  13.5101673  53.0066493  49.6628553  13.8221673  51.6726493
  49.4638553  13.3661673  52.2786493  51.2318553   5.3861673  37.5916493
  51.6098553   6.0631673  37.1916493  50.3898553   5.6101673  37.6226493
  51.1628553   5.5191673  37.5366493  42.7448553   8.8321673  36.6746493
  41.9398553   8.6551673  36.3896493  42.7118553   9.6831673  36.8666493
  42.6208553   8.9311673  36.6616493  38.6748553   4.8991673  46.8246493
  39.1148553   4.7961673  46.0786493  39.2198553   4.5861673  47.4296493
  38.8198553   4.8381673  46.8036493  46.6908553   4.0011673  52.4166493
  46.0428553   4.4711673  52.7646493  47.2558553   3.9121673  53.0756493
  46.6788553   4.0571673  52.5656493  46.3788553   5.5381673  48.7146493
  46.6808553   5.9581673  49.4176493  46.4148553   4.6981673  48.9466493
  46.4288553   5.4761673  48.8526493  43.8038553  15.7051673  52.6396493
  44.2818553  15.1051673  52.2236493  43.4528553  15.2621673  53.3046493
  43.8228553  15.5511673  52.6766493  48.9268553   4.9851673  40.9666493
  49.1338553   4.7841673  41.7906493  49.6828553   5.2531673  40.6246493
  49.0688553   4.9951673  41.0376493  50.3918553   9.0121673  40.8206493
  50.8678553   8.2831673  40.7726493  49.5708553   8.7261673  40.7446493
  50.3408553   8.8621673  40.8016493  43.8628553  10.9241673  51.6596493
  43.0678553  10.8601673  52.0106493  43.9338553  11.7711673  51.4646493
  43.7558553  11.0391673  51.6826493  39.6928553  17.1311673  46.9766493
  39.7038553  17.1901673  47.8466493  39.2678553  16.3841673  46.8266493
  39.6318553  17.0291673  47.0826493  37.8508553   3.0261673  40.1316493
  37.9768553   2.6971673  39.3336493  37.0388553   2.7771673  40.3306493
  37.7498553   2.9411673  40.0436493  46.6078553  10.1791673  43.1756493
  46.6838553  10.5201673  43.9746493  46.7768553   9.3321673  43.2966493
  46.6438553  10.1041673  43.3116493  44.1298553   9.4531673  42.7406493
  43.8318553   9.1381673  43.4976493  44.8248553   9.9261673  42.9756493
  44.1888553   9.4761673  42.8876493  44.3518553  13.5711673  50.7676493
  45.0388553  13.4571673  51.2926493  44.4858553  14.3621673  50.4236493
  44.4728553  13.6711673  50.7946493  52.5278553   6.1801673  52.5786493
  51.6728553   6.0581673  52.7046493  52.6808553   5.7851673  51.8156493
  52.4238553   6.1031673  52.4846493  47.0408553   6.8451673  51.1546493
  46.7858553   6.1261673  51.5766493  47.8618553   6.9611673  51.4246493
  47.1248553   6.7561673  51.2566493  36.4568553  16.6291673  52.4186493
  35.8028553  16.0601673  52.5166493  36.0818553  17.4021673  52.5696493
  36.3048553  16.6591673  52.4556493  44.9748553   8.0351673  54.3416493
  45.2978553   8.7211673  53.9096493  44.2708553   8.3581673  54.7436493
  44.9178553   8.1841673  54.3366493  48.0588553  16.4091673  45.2706493
  47.6078553  17.0521673  45.6496493  48.7668553  16.3301673  45.7756493
  48.0968553  16.4921673  45.4016493  44.7598553  11.4991673  48.2006493
  44.0658553  11.9011673  48.5436493  45.4368553  11.9321673  48.5396493
  44.7568553  11.6221673  48.3016493  50.1368553  14.0921673  54.7806493
  50.9128553  13.7021673  54.8636493  49.6678553  13.7561673  55.4356493
  50.1818553  13.9851673  54.8896493  37.8278553   5.0371673  50.5476493
  38.2028553   5.6561673  50.0606493  38.5018553   4.5631673  50.8326493
  37.9828553   5.0591673  50.5176493  35.6028553   3.4851673  49.8226493
  35.6798553   3.3161673  48.9696493  36.3488553   3.8911673  50.0196493
  35.7238553   3.5201673  49.7256493  51.1618553   6.1251673  40.2626493
  51.2648553   6.0671673  39.3986493  51.9028553   5.7931673  40.5806493
  51.2868553   6.0681673  40.1816493  45.0818553  13.0901673  41.3696493
  44.8768553  13.9231673  41.2106493  44.3068553  12.7081673  41.4916493
  44.9368553  13.1571673  41.3646493  50.2638553   6.2711673  49.6186493
  50.2618553   5.4081673  49.7426493  50.3308553   6.5951673  50.4256493
  50.2738553   6.1911673  49.7556493  34.9998553   8.7111673  50.0466493
  35.3198553   8.9301673  49.2656493  34.8998553   7.8461673  49.9916493
  35.0318553   8.6161673  49.9236493  36.4558553   4.6471673  36.6646493
  35.7838553   4.6611673  37.2206493  36.5508553   3.7991673  36.4806493
  36.3708553   4.5241673  36.7196493  40.4438553  13.3521673  37.7786493
  40.8848553  13.4321673  38.5266493  39.6388553  13.1361673  38.0366493
  40.3898553  13.3321673  37.9276493  48.7348553   1.7771673  47.0546493
  49.5898553   1.8761673  47.1996493  48.3658553   2.3301673  47.6196493
  48.8068553   1.8741673  47.1596493  39.7628553   8.0031673  51.4316493
  39.3668553   8.7771673  51.5066493  39.3568553   7.6301673  50.7556493
  39.6448553   8.0621673  51.3426493  49.0388553   7.0571673  45.5456493
  49.7048553   7.5981673  45.7056493  48.6938553   7.3681673  44.8066493
  49.0858553   7.1831673  45.4606493  49.3518553  15.1231673  41.3526493
  49.1778553  14.4691673  41.9026493  50.0648553  14.8521673  40.9296493
  49.4318553  14.9861673  41.3716493  37.7728553  12.4221673  38.3796493
  37.5288553  12.1151673  39.1596493  37.7398553  11.7191673  37.8636493
  37.7318553  12.2731673  38.4186493  40.5918553  10.6671673  37.1226493
  39.7738553  10.3991673  37.2626493  40.5638553  11.5191673  37.3076493
  40.4668553  10.7541673  37.1706493  47.0268553  12.5761673  49.0436493
  47.2328553  12.8771673  49.8356493  46.9658553  13.2981673  48.5586493
  47.0478553  12.7271673  49.0886493  46.5608553  16.7901673  53.2896493
  45.8078553  16.7721673  52.8486493  46.7288553  17.6421673  53.3736493
  46.4748553  16.9131673  53.2366493  41.7978553   6.0571673  52.4596493
  41.4758553   5.4811673  51.8896493  41.4388553   6.8121673  52.2136493
  41.6978553   6.0831673  52.3396493  51.8388553  11.2151673  48.5016493
  51.8068553  10.3531673  48.3666493  51.1458553  11.5171673  48.0676493
  51.7318553  11.1321673  48.4176493  40.2328553  16.4131673  52.7076493
  40.2738553  16.5391673  53.5706493  40.8838553  15.8531673  52.5516493
  40.3348553  16.3491673  52.8126493  49.9438553  14.4751673  47.2986493
  50.4708553  14.3921673  46.6076493  49.5528553  13.6971673  47.3526493
  49.9638553  14.3481673  47.2046493  37.8258553  14.7961673  54.0676493
  38.4208553  15.2271673  54.5396493  37.4618553  15.4201673  53.5786493
  37.8598553  14.9521673  54.0646493  45.8168553   5.7271673  43.9996493
  46.3678553   5.1201673  44.2996493  45.3918553   5.9901673  44.7146493
  45.8358553   5.6761673  44.1486493  36.0648553   4.3771673  43.4856493
  35.6968553   4.6791673  44.2166493  36.5988553   3.7481673  43.7696493
  36.0888553   4.3291673  43.6356493  35.7528553  12.7851673  50.9966493
  35.1788553  13.2011673  51.5056493  36.4858553  13.2501673  51.0916493
  35.7768553  12.9151673  51.0856493  47.7868553   7.5581673  40.5616493
  47.8548553   6.7081673  40.7426493  46.9638553   7.6441673  40.2836493
  47.6748553   7.4451673  40.5476493  37.5388553  16.0521673  39.7716493
  37.3938553  16.2081673  38.9256493  38.4048553  16.1311673  39.8496493
  37.6458553  16.0871673  39.6586493  41.7058553   8.4491673  39.4996493
  41.8058553   8.5881673  38.6446493  42.5238553   8.3891673  39.7956493
  41.8408553   8.4601673  39.4166493  50.8658553  16.5131673  36.9796493
  51.5028553  16.3791673  37.5606493  50.5248553  15.7191673  36.8626493
  50.9098553  16.3761673  37.0476493  51.0608553   8.9311673  53.7126493
  51.6948553   8.7611673  54.2866493  51.4778553   9.3341673  53.0606493
  51.2158553   8.9661673  53.7016493  46.9408553  12.7781673  39.3016493
  46.6898553  12.6501673  40.1276493  46.6238553  12.0831673  38.8806493
  46.8568553  12.6571673  39.3616493  51.6858553   3.4951673  54.4506493
  51.4898553   4.1391673  55.0056493  50.9638553   3.0051673  54.4426493
  51.5508553   3.5181673  54.5316493  51.5848553   4.4361673  47.4216493
  50.7518553   4.6861673  47.3496493  51.5288553   3.5961673  47.6506493
  51.4538553   4.3491673  47.4446493  48.4718553   9.0421673  55.0676493
  49.3428553   9.0061673  55.0316493  48.2528553   9.4621673  54.3356493
  48.5688553   9.0981673  54.9546493  38.2258553  14.8671673  46.2486493
  38.1468553  14.0571673  45.9326493  37.7818553  15.3541673  45.6766493
  38.1488553  14.8191673  46.1176493  43.8268553  10.9861673  38.7316493
  44.5438553  10.6391673  38.3756493  43.7928553  11.7861673  38.3836493
  43.9278553  11.0531673  38.6276493  35.7978553  17.1111673  49.8296493
  36.2908553  17.0551673  50.5476493  35.9858553  16.3781673  49.3946493
  35.8988553  16.9941673  49.8716493  45.0448553   6.5431673  27.6414083
  44.5208553   7.1391673  28.0044083  45.4418553   6.1751673  28.3254083
  45.0258553   6.5771673  27.7964083  34.9138553  10.6831673  23.0974083
  34.4728553  10.8011673  23.8404083  34.6308553   9.9081673  22.8124083
  34.8068553  10.5861673  23.1654083  51.1888553  13.9841673  20.6124083
  51.8898553  13.4651673  20.6084083  50.6018553  13.5391673  20.1434083
  51.2058553  13.8411673  20.5424083  34.6568553   4.4751673  19.6044083
  33.8788553   4.6371673  19.2444083  34.6958553   3.6041673  19.6264083
  34.5478553   4.3701673  19.5544083  37.7958553   9.7381673  18.2764083
  37.4038553   9.3671673  17.5904083  37.7158553   9.1401673  18.9054083
  37.7258553   9.5951673  18.2674083  47.7158553   7.6101673  24.3174083
  47.7958553   7.6141673  23.4484083  47.1318553   6.9781673  24.4664083
  47.6408553   7.5171673  24.2114083  37.4228553  11.3791673  22.1764083
  38.0308553  11.2091673  22.7794083  36.6718553  11.2391673  22.5974083
  37.4018553  11.3331673  22.3274083  36.3138553  14.4701673  18.2534083
  36.7808553  14.5541673  17.5214083  36.7688553  13.8921673  18.7224083
  36.4498553  14.3971673  18.2144083  34.8538553  13.4181673  29.3524083
  34.9828553  13.1381673  30.1684083  34.2438553  12.8771673  29.0434083
  34.7828553  13.2971673  29.4274083  41.4278553  10.9431673  34.4194083
  41.1918553  10.9401673  35.2594083  40.6798553  10.7951673  33.9954083
  41.2818553  10.9201673  34.4804083  36.2998553   7.9391673  23.5544083
  35.8378553   7.5471673  22.9274083  36.9998553   7.4261673  23.6464083
  36.3348553   7.8061673  23.4754083  40.8078553   3.5491673  28.9014083
  41.4858553   3.5671673  28.3524083  40.7628553   2.7131673  29.1464083
  40.9008553   3.4281673  28.8564083  41.4098553  14.1351673  31.6824083
  41.5478553  14.8951673  31.2754083  42.2008553  13.7701673  31.7094083
  41.5468553  14.1941673  31.6264083  38.3008553   6.0391673  23.5774083
  39.1178553   5.8521673  23.8204083  37.8238553   5.4251673  23.9734083
  38.3508553   5.9211673  23.6724083  42.5048553  12.0201673  26.1874083
  42.8528553  11.2211673  26.2174083  43.1698553  12.5241673  25.9324083
  42.6548553  11.9761673  26.1544083  42.5618553  11.4691673  22.3984083
  42.8928553  10.8251673  22.8844083  42.8018553  11.2581673  21.5874083
  42.6458553  11.3431673  22.3504083  44.5298553   5.6001673  33.7374083
  43.6818553   5.5011673  33.5594083  44.5588553   6.3451673  34.1914083
  44.4088553   5.6961673  33.7784083  46.5498553   3.2011673  17.3654083
  46.0998553   3.8821673  17.6724083  46.6638553   2.6971673  18.0684083
  46.5008553   3.2271673  17.5144083  34.7558553   5.7001673  26.5674083
  34.4998553   6.5311673  26.4924083  34.0918553   5.3171673  26.9844083
  34.6198553   5.7661673  26.6184083  34.6658553  15.4101673  24.4674083
  34.0738553  15.9681673  24.1544083  35.0918553  15.1411673  23.7554083
  34.6418553  15.4521673  24.3164083  40.5058553  13.2541673  21.9474083
  39.9268553  12.9791673  22.5394083  41.1298553  12.6451673  21.9724083
  40.5128553  13.1241673  22.0384083  46.6488553  15.5421673  19.4694083
  47.3758553  16.0141673  19.5714083  46.8778553  14.7481673  19.7494083
  46.7908553  15.4951673  19.5264083  44.8168553  15.9341673  21.4594083
  45.0308553  16.4611673  22.1214083  45.5838553  15.7601673  21.0804083
  44.9618553  15.9861673  21.5014083  41.0908553   2.6501673  36.3564083
  41.2078553   2.1961673  35.6204083  41.3788553   3.4481673  36.1534083
  41.1508553   2.7011673  36.2174083  36.2108553  14.0801673  22.3984083
  36.8668553  13.5051673  22.4134083  36.5998553  14.8291673  22.1774083
  36.3658553  14.1051673  22.3684083  51.9438553   3.1741673  23.6604083
  51.5978553   3.8521673  24.0864083  51.3078553   2.5761673  23.6764083
  51.7988553   3.1861673  23.7254083  47.2558553  15.9441673  29.7644083
  47.9998553  16.4001673  29.7544083  47.1348553  15.7301673  28.9274083
  47.3478553  15.9801673  29.6394083  36.8238553   2.2471673  35.3404083
  36.0458553   1.8571673  35.2684083  37.3148553   1.8351673  34.7494083
  36.7808553   2.1281673  35.2424083  37.0288553  12.5671673  25.8984083
  37.4518553  12.2111673  25.2244083  37.3528553  12.1451673  26.5904083
  37.1388553  12.4521673  25.9014083  40.2598553  15.4191673  25.1944083
  41.1038553  15.5231673  24.9994083  39.9628553  16.2371673  25.2624083
  40.3408553  15.5551673  25.1754083  44.0668553   4.8161673  23.2814083
  44.3538553   4.5841673  22.4914083  44.7988553   4.8951673  23.7504083
  44.2168553   4.7931673  23.2344083  44.7888553   5.1551673  18.4024083
  45.0698553   5.9431673  18.6514083  44.0128553   5.3201673  18.0394083
  44.7158553   5.2961673  18.3854083  48.8298553  17.1291673  19.8694083
  49.4948553  16.9811673  19.3244083  49.1898553  17.0461673  20.6594083
  48.9818553  17.0951673  19.9054083  39.2578553  16.6381673  30.9344083
  39.5498553  16.5711673  31.7544083  38.6318553  16.0331673  30.8894083
  39.2088553  16.5391673  31.0494083  34.1718553   2.7951673  32.9264083
  34.1678553   3.3821673  33.5724083  34.7658553   3.1071673  32.3694083
  34.2588553   2.9281673  32.9394083  46.5098553  13.1291673  33.4684083
  46.4758553  13.5111673  34.2524083  47.3638553  13.0871673  33.2974083
  46.6308553  13.1791673  33.5594083  43.6478553  13.3261673  18.2184083
  43.4668553  13.8711673  18.8754083  44.4138553  13.6161673  17.9174083
  43.7338553  13.4501673  18.2714083  37.2508553  14.8001673  30.0564083
  36.5528553  14.2921673  30.1824083  37.5108553  14.5951673  29.2484083
  37.1858553  14.6951673  29.9554083  44.4128553   3.5981673  20.5864083
  43.9048553   2.9361673  20.3324083  44.4648553   4.1021673  19.8764083
  44.3458553   3.5751673  20.4444083  44.9618553  16.2931673  30.9664083
  45.7298553  16.2131673  30.5604083  44.3788553  16.1721673  30.3284083
  44.9888553  16.2631673  30.8124083  51.2388553  16.8961673  23.8674083
  50.7838553  17.6131673  24.0684083  50.6248553  16.3251673  23.6254083
  51.0808553  16.9181673  23.8614083  43.0108553   2.9061673  24.9994083
  43.0848553   3.4741673  24.3414083  43.1318553   3.3981673  25.7094083
  43.0388553   3.0631673  25.0074083  48.2358553  12.7411673  23.4114083
  48.9368553  12.2591673  23.6004083  47.5758553  12.1721673  23.4564083
  48.2418553  12.5861673  23.4454083  40.5748553   9.1621673  27.3724083
  40.7468553   8.9521673  28.2014083  39.9198553   8.6281673  27.1564083
  40.5038553   9.0521673  27.4634083  46.8028553   3.0761673  30.8874083
  46.7078553   3.3951673  31.6934083  46.2098553   2.4371673  30.8494083
  46.7008553   3.0281673  31.0014083  41.3248553   9.1001673  29.9624083
  41.3778553   9.9471673  30.1644083  41.0398553   8.7301673  30.6994083
  41.2908553   9.1701673  30.1004083  47.5018553   9.7951673  29.0924083
  46.9878553   9.3831673  29.6634083  47.3758553  10.6391673  29.2734083
  47.4078553   9.8591673  29.2034083  34.1458553  13.4711673  36.1734083
  34.9018553  13.8201673  36.4314083  34.3228553  12.6181673  36.1164083
  34.2838553  13.3961673  36.2034083  50.5228553   3.2561673  32.0314083
  51.2948553   3.0311673  32.3684083  50.0478553   3.4731673  32.7314083
  50.5668553   3.2551673  32.1844083  38.0668553   2.5391673  25.0014083
  38.3388553   2.1091673  24.2934083  37.8908553   1.9031673  25.5724083
  38.0808553   2.3821673  24.9814083  50.7548553  10.2341673  19.2194083
  50.8738553   9.9471673  20.0344083  51.5618553  10.2551673  18.8894083
  50.8908553  10.1951673  19.2914083  37.8908553   9.9661673  24.5504083
  38.7418553   9.8861673  24.3774083  37.5338553   9.2841673  24.1384083
  37.9638553   9.8531673  24.4634083  36.6578553  16.6911673  25.7874083
  35.9848553  16.1931673  25.5424083  37.0608553  16.8761673  25.0364083
  36.6178553  16.6451673  25.6404083  36.2078553   3.6411673  28.0834083
  37.0508553   3.8611673  28.0404083  35.8188553   4.2141673  27.5524083
  36.2748553   3.7581673  27.9984083  52.9888553  14.7431673  33.4734083
  52.3068553  15.0531673  33.0264083  52.6198553  14.2851673  34.1184083
  52.8328553  14.7211673  33.5024083  48.6498553   6.7711673  18.8044083
  48.4298553   7.5021673  18.3824083  48.2018553   6.8221673  19.5514083
  48.5508553   6.8861673  18.8524083  40.2588553   9.9731673  22.7854083
  40.9718553  10.4681673  22.8754083  40.4808553   9.4061673  22.1594083
  40.3968553   9.9621673  22.7064083  34.4148553  11.6161673  26.1054083
  33.7478553  12.1041673  26.3814083  35.0948553  12.1611673  26.1344083
  34.4168553  11.7681673  26.1504083  42.0618553   5.3261673  36.2014083
  41.5778553   5.9031673  36.6434083  42.0338553   5.6211673  35.3804083
  41.9858553   5.4551673  36.1454083  53.1598553   6.0101673  30.8134083
  53.3748553   5.2101673  30.5374083  52.3098553   6.0701673  30.6244083
  53.0658553   5.9011673  30.7444083  34.4808553   8.3001673  21.2084083
  34.2958553   7.4611673  21.3604083  35.1398553   8.2641673  20.6384083
  34.5508553   8.1711673  21.1464083  44.7818553  13.6761673  25.1124083
  44.2588553  14.3101673  24.8194083  45.0918553  13.3121673  24.3834083
  44.7498553  13.7161673  24.9614083  34.6528553  12.4641673  20.7834083
  35.2048553  13.0331673  21.1474083  34.4208553  11.9491673  21.4484083
  34.6998553  12.4721673  20.9354083  38.8568553  11.4641673  27.8724083
  39.3238553  11.7531673  28.5504083  39.4288553  10.9861673  27.4184083
  39.0108553  11.4361673  27.9054083  47.2928553   3.4781673  25.6094083
  47.6368553   3.6301673  26.3964083  46.8398553   2.7401673  25.7224083
  47.2768553   3.3911673  25.7424083  34.4828553  10.9131673  18.4114083
  35.2388553  10.4811673  18.4694083  34.4978553  11.4451673  19.1024083
  34.5968553  10.9281673  18.5224083  35.4228553   9.1341673  26.4164083
  35.8538553   9.0051673  25.6694083  35.2178553   9.9821673  26.3904083
  35.4558553   9.2401673  26.3024083  41.7688553   2.6981673  20.0664083
  41.7668553   2.5811673  19.2014083  41.5878553   3.5461673  20.1584083
  41.7418553   2.8061673  19.9524083  50.8228553  15.1251673  31.5634083
  50.1518553  15.6391673  31.7814083  50.8858553  15.2251673  30.6994083
  50.7328553  15.2161673  31.4684083  39.5068553  12.6501673  24.6984083
  39.6328553  13.4931673  24.8854083  40.1748553  12.2511673  25.0944083
  39.6248553  12.7161673  24.7844083  37.6368553   6.1331673  34.5604083
  37.1008553   5.6271673  35.0284083  37.6568553   5.7431673  33.7804083
  37.5598553   6.0001673  34.5144083  38.1218553   5.5301673  19.7004083
  37.9938553   5.0821673  20.4384083  37.5398553   5.1881673  19.1484083
  38.0168553   5.4131673  19.7284083  38.2888553   7.3601673  26.2994083
  37.5078553   7.3011673  25.9164083  38.3608553   6.6081673  26.7364083
  38.1838553   7.2411673  26.3074083  38.7188553   7.0971673  29.7674083
  38.7438553   6.4221673  29.2164083  38.0728553   7.5931673  29.4554083
  38.6278553   7.0701673  29.6404083  48.6138553   4.8101673  28.1634083
  47.9518553   5.1381673  28.6264083  48.8008553   5.4441673  27.5944083
  48.5438553   4.9521673  28.1474083  42.8188553  15.8741673  29.1594083
  42.5418553  15.2331673  28.6364083  42.6108553  16.6001673  28.7214083
  42.7478553  15.8871673  29.0174083  46.8068553   2.7791673  21.6744083
  47.2968553   3.4961673  21.5974083  46.0168553   3.0401673  21.4114083
  46.7628553   2.9231673  21.6244083  36.5178553   8.4521673  35.3264083
  36.4808553   8.9531673  34.6124083  36.8488553   7.7001673  35.0314083
  36.5608553   8.4141673  35.1774083  48.1208553  10.6571673  33.5844083
  48.6048553  11.3751673  33.6824083  48.5148553  10.2301673  32.9334083
  48.2508553  10.7001673  33.5024083  42.4168553  13.5021673  34.7614083
  42.7708553  13.3241673  35.5384083  41.9808553  12.7731673  34.5624083
  42.4048553  13.3681673  34.8474083  43.3888553   4.2491673  27.3994083
  43.8688553   4.9481673  27.6074083  43.7618553   3.6021673  27.8504083
  43.5148553   4.2571673  27.4964083  45.5778553   7.4181673  19.6734083
  45.5698553   8.1401673  19.1834083  44.9388553   7.5531673  20.2504083
  45.4828553   7.5451673  19.6864083  50.5498553  11.2881673  23.6544083
  50.9058553  10.9381673  24.3694083  50.5418553  10.6271673  23.0844083
  50.6018553  11.1381673  23.6754083  46.5948553  14.3541673  27.4984083
  45.9918553  14.0581673  26.9414083  47.1398553  14.8061673  26.9894083
  46.5858553  14.3771673  27.3404083  46.6078553  11.2051673  26.8984083
  45.8108553  11.4291673  27.1724083  46.8658553  10.6111673  27.4834083
  46.5278553  11.1501673  27.0254083  40.4998553  16.0171673  21.3464083
  40.3528553  15.2411673  21.7174083  41.1888553  15.8701673  20.8314083
  40.5798553  15.8801673  21.3254083  42.7918553  15.5331673  19.7484083
  43.4138553  15.6961673  20.3384083  42.8278553  16.2241673  19.2164083
  42.8888553  15.6591673  19.7574083  49.8678553   9.2031673  31.7444083
  49.9228553   9.3281673  30.8824083  50.6208553   9.5231673  32.0464083
  49.9868553   9.2681673  31.6614083  46.0588553  14.5521673  36.0214083
  46.2228553  14.8351673  36.8304083  46.3218553  15.2131673  35.5164083
  46.1218553  14.6921673  36.0664083  37.2928553   8.0671673  20.5774083
  37.6168553   7.2881673  20.3554083  37.9388553   8.4351673  21.0324083
  37.4358553   8.0061673  20.6114083  45.5988553   9.0091673  31.3444083
  45.4438553   9.6191673  31.9484083  46.1328553   8.4511673  31.7504083
  45.6548553   9.0171673  31.4934083  43.9828553   7.4091673  22.0024083
  44.0418553   8.0591673  22.5814083  43.7938553   6.7131673  22.4934083
  43.9638553   7.4021673  22.1604083  49.2088553  11.7381673  27.8714083
  48.7298553  12.0361673  27.2054083  48.8528553  10.9621673  28.0494083
  49.0858553  11.6671673  27.7994083  38.4788553   1.9261673  18.5144083
  37.9678553   1.9791673  17.8084083  39.2628553   2.1661673  18.2184083
  38.5188553   1.9691673  18.3664083  43.2058553   9.4561673  26.4334083
  42.3588553   9.2621673  26.5144083  43.5298553   9.2911673  27.2264083
  43.1278553   9.4031673  26.5624083  39.9578553  16.1861673  17.3194083
  40.3968553  15.4891673  17.6074083  40.1648553  16.8101673  17.8924083
  40.0538553  16.1751673  17.4464083  37.0538553   9.1491673  28.7494083
  37.7758553   9.6371673  28.7124083  36.7838553   9.1191673  27.9204083
  37.1208553   9.2171673  28.6214083  40.2838553   4.3201673  25.4844083
  41.1298553   4.1301673  25.5824083  39.9138553   3.5431673  25.3464083
  40.3538553   4.1771673  25.4784083  52.9008553  15.9041673  19.8114083
  53.5948553  15.4371673  19.5634083  52.3618553  15.3061673  20.1484083
  52.9238553  15.7461673  19.8244083  35.1048553   5.6581673  22.1394083
  35.5938553   5.3661673  22.8004083  35.2338553   5.0651673  21.5124083
  35.1958553   5.5271673  22.1444083  50.1398553   8.6801673  28.9904083
  50.1328553   7.9041673  29.3884083  49.2988553   8.9141673  28.9834083
  50.0148553   8.6001673  29.0484083  39.6298553   7.0921673  17.6254083
  39.0198553   6.6871673  18.0994083  39.2438553   7.2101673  16.8524083
  39.4828553   7.0491673  17.5814083  36.4488553  10.2011673  33.0274083
  36.0278553   9.6831673  32.4664083  36.0968553  10.9871673  32.8844083
  36.3348553  10.2411673  32.9234083  51.3958553   8.7511673  26.4274083
  51.1098553   9.1521673  27.1474083  52.2558553   8.6891673  26.5544083
  51.4808553   8.8011673  26.5524083  41.0848553   5.5531673  20.3354083
  41.3568553   6.3791673  20.4024083  40.2218553   5.6281673  20.2394083
  40.9978553   5.6861673  20.3304083  49.0578553   2.6751673  34.9674083
  48.5328553   3.1341673  35.4914083  48.6968553   1.8801673  34.9614083
  48.9268553   2.6251673  35.0434083  52.5268553  14.3841673  26.9564083
  52.8168553  14.6411673  26.1754083  53.2218553  14.4801673  27.4754083
  52.6728553  14.4361673  26.9174083  47.5498553   6.2441673  35.0434083
  47.6228553   6.3481673  35.9064083  46.9158553   6.8021673  34.8224083
  47.4668553   6.3421673  35.1384083  49.8178553   6.5631673  33.4084083
  50.1368553   7.3491673  33.6114083  49.4478553   6.2931673  34.1514083
  49.8108553   6.6391673  33.5484083  49.1318553  12.9871673  18.9384083
  49.4658553  12.1811673  18.9734083  48.3768553  12.9151673  19.3684083
  49.0698553  12.8571673  19.0074083  49.6138553   4.8211673  24.5974083
  48.8688553   4.4981673  24.9154083  49.6158553   5.6471673  24.8774083
  49.5038553   4.8951673  24.6854083  52.5158553   7.1051673  36.1434083
  52.4638553   6.7641673  35.3424083  53.2528553   7.5721673  36.1214083
  52.6168553   7.1241673  36.0214083  52.0538553  10.7811673  32.3494083
  52.6818553  10.2321673  32.0934083  51.9928553  11.3461673  31.6874083
  52.1378553  10.7841673  32.2134083  46.5058553  10.8621673  18.3414083
  47.1898553  10.3481673  18.1724083  46.0888553  10.9081673  17.5764083
  46.5448553  10.7931673  18.2034083  41.1878553  12.0121673  29.6454083
  40.8898553  12.6041673  30.2124083  41.2428553  12.4541673  28.8964083
  41.1518553  12.1651673  29.6184083  39.1668553  10.9621673  33.0434083
  38.3608553  10.6721673  33.2104083  39.0778553  11.8301673  33.0494083
  39.0348553  11.0471673  33.0684083  43.7038553   8.4351673  29.1364083
  44.1798553   8.8091673  29.7644083  42.8808553   8.5691673  29.3954083
  43.6528553   8.5101673  29.2674083  40.4138553   4.0381673  31.8774083
  40.5748553   3.2941673  32.3044083  40.3688553   3.7891673  31.0424083
  40.4308553   3.8911673  31.8174083  42.9678553  15.8281673  24.3644083
  43.5138553  16.5071673  24.4184083  42.6178553  15.9101673  23.5694083
  42.9968553  15.9411673  24.2544083  41.1508553  14.0561673  27.7534083
  40.5268553  14.6381673  27.5714083  41.3988553  13.7701673  26.9674083
  41.0948553  14.1001673  27.6104083  45.4598553  10.6901673  34.7424083
  46.2168553  10.9761673  34.4164083  44.9128553  10.7421673  34.0644083
  45.4908553  10.7401673  34.5934083  49.3688553  13.2401673  33.2464083
  49.7148553  13.5101673  34.0004083  49.6628553  13.8221673  32.6664083
  49.4638553  13.3661673  33.2724083  51.2318553   5.3861673  18.5854083
  51.6098553   6.0631673  18.1854083  50.3898553   5.6101673  18.6164083
  51.1628553   5.5191673  18.5304083  42.7448553   8.8321673  17.6684083
  41.9398553   8.6551673  17.3834083  42.7118553   9.6831673  17.8604083
  42.6208553   8.9311673  17.6554083  38.6748553   4.8991673  27.8184083
  39.1148553   4.7961673  27.0724083  39.2198553   4.5861673  28.4234083
  38.8198553   4.8381673  27.7974083  46.6908553   4.0011673  33.4104083
  46.0428553   4.4711673  33.7584083  47.2558553   3.9121673  34.0694083
  46.6788553   4.0571673  33.5594083  46.3788553   5.5381673  29.7084083
  46.6808553   5.9581673  30.4114083  46.4148553   4.6981673  29.9404083
  46.4288553   5.4761673  29.8464083  43.8038553  15.7051673  33.6334083
  44.2818553  15.1051673  33.2174083  43.4528553  15.2621673  34.2984083
  43.8228553  15.5511673  33.6704083  48.9268553   4.9851673  21.9604083
  49.1338553   4.7841673  22.7844083  49.6828553   5.2531673  21.6184083
  49.0688553   4.9951673  22.0314083  50.3918553   9.0121673  21.8144083
  50.8678553   8.2831673  21.7664083  49.5708553   8.7261673  21.7384083
  50.3408553   8.8621673  21.7954083  43.8628553  10.9241673  32.6534083
  43.0678553  10.8601673  33.0044083  43.9338553  11.7711673  32.4584083
  43.7558553  11.0391673  32.6764083  39.6928553  17.1311673  27.9704083
  39.7038553  17.1901673  28.8404083  39.2678553  16.3841673  27.8204083
  39.6318553  17.0291673  28.0764083  37.8508553   3.0261673  21.1254083
  37.9768553   2.6971673  20.3274083  37.0388553   2.7771673  21.3244083
  37.7498553   2.9411673  21.0374083  46.6078553  10.1791673  24.1694083
  46.6838553  10.5201673  24.9684083  46.7768553   9.3321673  24.2904083
  46.6438553  10.1041673  24.3054083  44.1298553   9.4531673  23.7344083
  43.8318553   9.1381673  24.4914083  44.8248553   9.9261673  23.9694083
  44.1888553   9.4761673  23.8814083  44.3518553  13.5711673  31.7614083
  45.0388553  13.4571673  32.2864083  44.4858553  14.3621673  31.4174083
  44.4728553  13.6711673  31.7884083  52.5278553   6.1801673  33.5724083
  51.6728553   6.0581673  33.6984083  52.6808553   5.7851673  32.8094083
  52.4238553   6.1031673  33.4784083  47.0408553   6.8451673  32.1484083
  46.7858553   6.1261673  32.5704083  47.8618553   6.9611673  32.4184083
  47.1248553   6.7561673  32.2504083  36.4568553  16.6291673  33.4124083
  35.8028553  16.0601673  33.5104083  36.0818553  17.4021673  33.5634083
  36.3048553  16.6591673  33.4494083  44.9748553   8.0351673  35.3354083
  45.2978553   8.7211673  34.9034083  44.2708553   8.3581673  35.7374083
  44.9178553   8.1841673  35.3304083  48.0588553  16.4091673  26.2644083
  47.6078553  17.0521673  26.6434083  48.7668553  16.3301673  26.7694083
  48.0968553  16.4921673  26.3954083  44.7598553  11.4991673  29.1944083
  44.0658553  11.9011673  29.5374083  45.4368553  11.9321673  29.5334083
  44.7568553  11.6221673  29.2954083  50.1368553  14.0921673  35.7744083
  50.9128553  13.7021673  35.8574083  49.6678553  13.7561673  36.4294083
  50.1818553  13.9851673  35.8834083  37.8278553   5.0371673  31.5414083
  38.2028553   5.6561673  31.0544083  38.5018553   4.5631673  31.8264083
  37.9828553   5.0591673  31.5114083  35.6028553   3.4851673  30.8164083
  35.6798553   3.3161673  29.9634083  36.3488553   3.8911673  31.0134083
  35.7238553   3.5201673  30.7194083  51.1618553   6.1251673  21.2564083
  51.2648553   6.0671673  20.3924083  51.9028553   5.7931673  21.5744083
  51.2868553   6.0681673  21.1754083  45.0818553  13.0901673  22.3634083
  44.8768553  13.9231673  22.2044083  44.3068553  12.7081673  22.4854083
  44.9368553  13.1571673  22.3584083  50.2638553   6.2711673  30.6124083
  50.2618553   5.4081673  30.7364083  50.3308553   6.5951673  31.4194083
  50.2738553   6.1911673  30.7494083  34.9998553   8.7111673  31.0404083
  35.3198553   8.9301673  30.2594083  34.8998553   7.8461673  30.9854083
  35.0318553   8.6161673  30.9174083  36.4558553   4.6471673  17.6584083
  35.7838553   4.6611673  18.2144083  36.5508553   3.7991673  17.4744083
  36.3708553   4.5241673  17.7134083  40.4438553  13.3521673  18.7724083
  40.8848553  13.4321673  19.5204083  39.6388553  13.1361673  19.0304083
  40.3898553  13.3321673  18.9214083  48.7348553   1.7771673  28.0484083
  49.5898553   1.8761673  28.1934083  48.3658553   2.3301673  28.6134083
  48.8068553   1.8741673  28.1534083  39.7628553   8.0031673  32.4254083
  39.3668553   8.7771673  32.5004083  39.3568553   7.6301673  31.7494083
  39.6448553   8.0621673  32.3364083  49.0388553   7.0571673  26.5394083
  49.7048553   7.5981673  26.6994083  48.6938553   7.3681673  25.8004083
  49.0858553   7.1831673  26.4544083  49.3518553  15.1231673  22.3464083
  49.1778553  14.4691673  22.8964083  50.0648553  14.8521673  21.9234083
  49.4318553  14.9861673  22.3654083  37.7728553  12.4221673  19.3734083
  37.5288553  12.1151673  20.1534083  37.7398553  11.7191673  18.8574083
  37.7318553  12.2731673  19.4124083  40.5918553  10.6671673  18.1164083
  39.7738553  10.3991673  18.2564083  40.5638553  11.5191673  18.3014083
  40.4668553  10.7541673  18.1644083  47.0268553  12.5761673  30.0374083
  47.2328553  12.8771673  30.8294083  46.9658553  13.2981673  29.5524083
  47.0478553  12.7271673  30.0824083  46.5608553  16.7901673  34.2834083
  45.8078553  16.7721673  33.8424083  46.7288553  17.6421673  34.3674083
  46.4748553  16.9131673  34.2304083  41.7978553   6.0571673  33.4534083
  41.4758553   5.4811673  32.8834083  41.4388553   6.8121673  33.2074083
  41.6978553   6.0831673  33.3334083  51.8388553  11.2151673  29.4954083
  51.8068553  10.3531673  29.3604083  51.1458553  11.5171673  29.0614083
  51.7318553  11.1321673  29.4114083  40.2328553  16.4131673  33.7014083
  40.2738553  16.5391673  34.5644083  40.8838553  15.8531673  33.5454083
  40.3348553  16.3491673  33.8064083  49.9438553  14.4751673  28.2924083
  50.4708553  14.3921673  27.6014083  49.5528553  13.6971673  28.3464083
  49.9638553  14.3481673  28.1984083  37.8258553  14.7961673  35.0614083
  38.4208553  15.2271673  35.5334083  37.4618553  15.4201673  34.5724083
  37.8598553  14.9521673  35.0584083  45.8168553   5.7271673  24.9934083
  46.3678553   5.1201673  25.2934083  45.3918553   5.9901673  25.7084083
  45.8358553   5.6761673  25.1424083  36.0648553   4.3771673  24.4794083
  35.6968553   4.6791673  25.2104083  36.5988553   3.7481673  24.7634083
  36.0888553   4.3291673  24.6294083  35.7528553  12.7851673  31.9904083
  35.1788553  13.2011673  32.4994083  36.4858553  13.2501673  32.0854083
  35.7768553  12.9151673  32.0794083  47.7868553   7.5581673  21.5554083
  47.8548553   6.7081673  21.7364083  46.9638553   7.6441673  21.2774083
  47.6748553   7.4451673  21.5414083  37.5388553  16.0521673  20.7654083
  37.3938553  16.2081673  19.9194083  38.4048553  16.1311673  20.8434083
  37.6458553  16.0871673  20.6524083  41.7058553   8.4491673  20.4934083
  41.8058553   8.5881673  19.6384083  42.5238553   8.3891673  20.7894083
  41.8408553   8.4601673  20.4104083  50.8658553  16.5131673  17.9734083
  51.5028553  16.3791673  18.5544083  50.5248553  15.7191673  17.8564083
  50.9098553  16.3761673  18.0414083  51.0608553   8.9311673  34.7064083
  51.6948553   8.7611673  35.2804083  51.4778553   9.3341673  34.0544083
  51.2158553   8.9661673  34.6954083  46.9408553  12.7781673  20.2954083
  46.6898553  12.6501673  21.1214083  46.6238553  12.0831673  19.8744083
  46.8568553  12.6571673  20.3554083  51.6858553   3.4951673  35.4444083
  51.4898553   4.1391673  35.9994083  50.9638553   3.0051673  35.4364083
  51.5508553   3.5181673  35.5254083  51.5848553   4.4361673  28.4154083
  50.7518553   4.6861673  28.3434083  51.5288553   3.5961673  28.6444083
  51.4538553   4.3491673  28.4384083  48.4718553   9.0421673  36.0614083
  49.3428553   9.0061673  36.0254083  48.2528553   9.4621673  35.3294083
  48.5688553   9.0981673  35.9484083  38.2258553  14.8671673  27.2424083
  38.1468553  14.0571673  26.9264083  37.7818553  15.3541673  26.6704083
  38.1488553  14.8191673  27.1114083  43.8268553  10.9861673  19.7254083
  44.5438553  10.6391673  19.3694083  43.7928553  11.7861673  19.3774083
  43.9278553  11.0531673  19.6214083  35.7978553  17.1111673  30.8234083
  36.2908553  17.0551673  31.5414083  35.9858553  16.3781673  30.3884083
  35.8988553  16.9941673  30.8654083  45.0448553   6.5431673   8.6351673
  44.5208553   7.1391673   8.9981673  45.4418553   6.1751673   9.3191673
  45.0258553   6.5771673   8.7901673  34.9138553  10.6831673   4.0911673
  34.4728553  10.8011673   4.8341673  34.6308553   9.9081673   3.8061673
  34.8068553  10.5861673   4.1591673  47.7158553   7.6101673   5.3111673
  47.7958553   7.6141673   4.4421673  47.1318553   6.9781673   5.4601673
  47.6408553   7.5171673   5.2051673  37.4228553  11.3791673   3.1701673
  38.0308553  11.2091673   3.7731673  36.6718553  11.2391673   3.5911673
  37.4018553  11.3331673   3.3211673  34.8538553  13.4181673  10.3461673
  34.9828553  13.1381673  11.1621673  34.2438553  12.8771673  10.0371673
  34.7828553  13.2971673  10.4211673  41.4278553  10.9431673  15.4131673
  41.1918553  10.9401673  16.2531673  40.6798553  10.7951673  14.9891673
  41.2818553  10.9201673  15.4741673  36.2998553   7.9391673   4.5481673
  35.8378553   7.5471673   3.9211673  36.9998553   7.4261673   4.6401673
  36.3348553   7.8061673   4.4691673  40.8078553   3.5491673   9.8951673
  41.4858553   3.5671673   9.3461673  40.7628553   2.7131673  10.1401673
  40.9008553   3.4281673   9.8501673  41.4098553  14.1351673  12.6761673
  41.5478553  14.8951673  12.2691673  42.2008553  13.7701673  12.7031673
  41.5468553  14.1941673  12.6201673  38.3008553   6.0391673   4.5711673
  39.1178553   5.8521673   4.8141673  37.8238553   5.4251673   4.9671673
  38.3508553   5.9211673   4.6661673  42.5048553  12.0201673   7.1811673
  42.8528553  11.2211673   7.2111673  43.1698553  12.5241673   6.9261673
  42.6548553  11.9761673   7.1481673  42.5618553  11.4691673   3.3921673
  42.8928553  10.8251673   3.8781673  42.8018553  11.2581673   2.5811673
  42.6458553  11.3431673   3.3441673  44.5298553   5.6001673  14.7311673
  43.6818553   5.5011673  14.5531673  44.5588553   6.3451673  15.1851673
  44.4088553   5.6961673  14.7721673  34.7558553   5.7001673   7.5611673
  34.4998553   6.5311673   7.4861673  34.0918553   5.3171673   7.9781673
  34.6198553   5.7661673   7.6121673  34.6658553  15.4101673   5.4611673
  34.0738553  15.9681673   5.1481673  35.0918553  15.1411673   4.7491673
  34.6418553  15.4521673   5.3101673  40.5058553  13.2541673   2.9411673
  39.9268553  12.9791673   3.5331673  41.1298553  12.6451673   2.9661673
  40.5128553  13.1241673   3.0321673  44.8168553  15.9341673   2.4531673
  45.0308553  16.4611673   3.1151673  45.5838553  15.7601673   2.0741673
  44.9618553  15.9861673   2.4951673  41.0908553   2.6501673  17.3501673
  41.2078553   2.1961673  16.6141673  41.3788553   3.4481673  17.1471673
  41.1508553   2.7011673  17.2111673  36.2108553  14.0801673   3.3921673
  36.8668553  13.5051673   3.4071673  36.5998553  14.8291673   3.1711673
  36.3658553  14.1051673   3.3621673  51.9438553   3.1741673   4.6541673
  51.5978553   3.8521673   5.0801673  51.3078553   2.5761673   4.6701673
  51.7988553   3.1861673   4.7191673  47.2558553  15.9441673  10.7581673
  47.9998553  16.4001673  10.7481673  47.1348553  15.7301673   9.9211673
  47.3478553  15.9801673  10.6331673  36.8238553   2.2471673  16.3341673
  36.0458553   1.8571673  16.2621673  37.3148553   1.8351673  15.7431673
  36.7808553   2.1281673  16.2361673  37.0288553  12.5671673   6.8921673
  37.4518553  12.2111673   6.2181673  37.3528553  12.1451673   7.5841673
  37.1388553  12.4521673   6.8951673  40.2598553  15.4191673   6.1881673
  41.1038553  15.5231673   5.9931673  39.9628553  16.2371673   6.2561673
  40.3408553  15.5551673   6.1691673  44.0668553   4.8161673   4.2751673
  44.3538553   4.5841673   3.4851673  44.7988553   4.8951673   4.7441673
  44.2168553   4.7931673   4.2281673  39.2578553  16.6381673  11.9281673
  39.5498553  16.5711673  12.7481673  38.6318553  16.0331673  11.8831673
  39.2088553  16.5391673  12.0431673  34.1718553   2.7951673  13.9201673
  34.1678553   3.3821673  14.5661673  34.7658553   3.1071673  13.3631673
  34.2588553   2.9281673  13.9331673  46.5098553  13.1291673  14.4621673
  46.4758553  13.5111673  15.2461673  47.3638553  13.0871673  14.2911673
  46.6308553  13.1791673  14.5531673  37.2508553  14.8001673  11.0501673
  36.5528553  14.2921673  11.1761673  37.5108553  14.5951673  10.2421673
  37.1858553  14.6951673  10.9491673  44.9618553  16.2931673  11.9601673
  45.7298553  16.2131673  11.5541673  44.3788553  16.1721673  11.3221673
  44.9888553  16.2631673  11.8061673  51.2388553  16.8961673   4.8611673
  50.7838553  17.6131673   5.0621673  50.6248553  16.3251673   4.6191673
  51.0808553  16.9181673   4.8551673  43.0108553   2.9061673   5.9931673
  43.0848553   3.4741673   5.3351673  43.1318553   3.3981673   6.7031673
  43.0388553   3.0631673   6.0011673  48.2358553  12.7411673   4.4051673
  48.9368553  12.2591673   4.5941673  47.5758553  12.1721673   4.4501673
  48.2418553  12.5861673   4.4391673  38.6118553  13.6511673  13.6171673
  39.4528553  13.7141673  13.3951673  38.5748553  14.0481673  14.3931673
  38.7308553  13.7191673  13.6991673  40.5748553   9.1621673   8.3661673
  40.7468553   8.9521673   9.1951673  39.9198553   8.6281673   8.1501673
  40.5038553   9.0521673   8.4571673  46.8028553   3.0761673  11.8811673
  46.7078553   3.3951673  12.6871673  46.2098553   2.4371673  11.8431673
  46.7008553   3.0281673  11.9951673  41.3248553   9.1001673  10.9561673
  41.3778553   9.9471673  11.1581673  41.0398553   8.7301673  11.6931673
  41.2908553   9.1701673  11.0941673  47.5018553   9.7951673  10.0861673
  46.9878553   9.3831673  10.6571673  47.3758553  10.6391673  10.2671673
  47.4078553   9.8591673  10.1971673  34.1458553  13.4711673  17.1671673
  34.9018553  13.8201673  17.4251673  34.3228553  12.6181673  17.1101673
  34.2838553  13.3961673  17.1971673  50.5228553   3.2561673  13.0251673
  51.2948553   3.0311673  13.3621673  50.0478553   3.4731673  13.7251673
  50.5668553   3.2551673  13.1781673  38.0668553   2.5391673   5.9951673
  38.3388553   2.1091673   5.2871673  37.8908553   1.9031673   6.5661673
  38.0808553   2.3821673   5.9751673  37.8908553   9.9661673   5.5441673
  38.7418553   9.8861673   5.3711673  37.5338553   9.2841673   5.1321673
  37.9638553   9.8531673   5.4571673  36.6578553  16.6911673   6.7811673
  35.9848553  16.1931673   6.5361673  37.0608553  16.8761673   6.0301673
  36.6178553  16.6451673   6.6341673  36.2078553   3.6411673   9.0771673
  37.0508553   3.8611673   9.0341673  35.8188553   4.2141673   8.5461673
  36.2748553   3.7581673   8.9921673  52.9888553  14.7431673  14.4671673
  52.3068553  15.0531673  14.0201673  52.6198553  14.2851673  15.1121673
  52.8328553  14.7211673  14.4961673  40.2588553   9.9731673   3.7791673
  40.9718553  10.4681673   3.8691673  40.4808553   9.4061673   3.1531673
  40.3968553   9.9621673   3.7001673  34.4148553  11.6161673   7.0991673
  33.7478553  12.1041673   7.3751673  35.0948553  12.1611673   7.1281673
  34.4168553  11.7681673   7.1441673  42.0618553   5.3261673  17.1951673
  41.5778553   5.9031673  17.6371673  42.0338553   5.6211673  16.3741673
  41.9858553   5.4551673  17.1391673  53.1598553   6.0101673  11.8071673
  53.3748553   5.2101673  11.5311673  52.3098553   6.0701673  11.6181673
  53.0658553   5.9011673  11.7381673  34.4808553   8.3001673   2.2021673
  34.2958553   7.4611673   2.3541673  35.1398553   8.2641673   1.6321673
  34.5508553   8.1711673   2.1401673  44.7818553  13.6761673   6.1061673
  44.2588553  14.3101673   5.8131673  45.0918553  13.3121673   5.3771673
  44.7498553  13.7161673   5.9551673  34.6528553  12.4641673   1.7771673
  35.2048553  13.0331673   2.1411673  34.4208553  11.9491673   2.4421673
  34.6998553  12.4721673   1.9291673  38.8568553  11.4641673   8.8661673
  39.3238553  11.7531673   9.5441673  39.4288553  10.9861673   8.4121673
  39.0108553  11.4361673   8.8991673  47.2928553   3.4781673   6.6031673
  47.6368553   3.6301673   7.3901673  46.8398553   2.7401673   6.7161673
  47.2768553   3.3911673   6.7361673  35.4228553   9.1341673   7.4101673
  35.8538553   9.0051673   6.6631673  35.2178553   9.9821673   7.3841673
  35.4558553   9.2401673   7.2961673  50.8228553  15.1251673  12.5571673
  50.1518553  15.6391673  12.7751673  50.8858553  15.2251673  11.6931673
  50.7328553  15.2161673  12.4621673  39.5068553  12.6501673   5.6921673
  39.6328553  13.4931673   5.8791673  40.1748553  12.2511673   6.0881673
  39.6248553  12.7161673   5.7781673  37.6368553   6.1331673  15.5541673
  37.1008553   5.6271673  16.0221673  37.6568553   5.7431673  14.7741673
  37.5598553   6.0001673  15.5081673  38.2888553   7.3601673   7.2931673
  37.5078553   7.3011673   6.9101673  38.3608553   6.6081673   7.7301673
  38.1838553   7.2411673   7.3011673  38.7188553   7.0971673  10.7611673
  38.7438553   6.4221673  10.2101673  38.0728553   7.5931673  10.4491673
  38.6278553   7.0701673  10.6341673  48.6138553   4.8101673   9.1571673
  47.9518553   5.1381673   9.6201673  48.8008553   5.4441673   8.5881673
  48.5438553   4.9521673   9.1411673  42.8188553  15.8741673  10.1531673
  42.5418553  15.2331673   9.6301673  42.6108553  16.6001673   9.7151673
  42.7478553  15.8871673  10.0111673  46.8068553   2.7791673   2.6681673
  47.2968553   3.4961673   2.5911673  46.0168553   3.0401673   2.4051673
  46.7628553   2.9231673   2.6181673  36.5178553   8.4521673  16.3201673
  36.4808553   8.9531673  15.6061673  36.8488553   7.7001673  16.0251673
  36.5608553   8.4141673  16.1711673  48.1208553  10.6571673  14.5781673
  48.6048553  11.3751673  14.6761673  48.5148553  10.2301673  13.9271673
  48.2508553  10.7001673  14.4961673  42.4168553  13.5021673  15.7551673
  42.7708553  13.3241673  16.5321673  41.9808553  12.7731673  15.5561673
  42.4048553  13.3681673  15.8411673  43.3888553   4.2491673   8.3931673
  43.8688553   4.9481673   8.6011673  43.7618553   3.6021673   8.8441673
  43.5148553   4.2571673   8.4901673  50.5498553  11.2881673   4.6481673
  50.9058553  10.9381673   5.3631673  50.5418553  10.6271673   4.0781673
  50.6018553  11.1381673   4.6691673  46.5948553  14.3541673   8.4921673
  45.9918553  14.0581673   7.9351673  47.1398553  14.8061673   7.9831673
  46.5858553  14.3771673   8.3341673  46.6078553  11.2051673   7.8921673
  45.8108553  11.4291673   8.1661673  46.8658553  10.6111673   8.4771673
  46.5278553  11.1501673   8.0191673  40.4998553  16.0171673   2.3401673
  40.3528553  15.2411673   2.7111673  41.1888553  15.8701673   1.8251673
  40.5798553  15.8801673   2.3191673  49.8678553   9.2031673  12.7381673
  49.9228553   9.3281673  11.8761673  50.6208553   9.5231673  13.0401673
  49.9868553   9.2681673  12.6551673  46.0588553  14.5521673  17.0151673
  46.2228553  14.8351673  17.8241673  46.3218553  15.2131673  16.5101673
  46.1218553  14.6921673  17.0601673  45.5988553   9.0091673  12.3381673
  45.4438553   9.6191673  12.9421673  46.1328553   8.4511673  12.7441673
  45.6548553   9.0171673  12.4871673  43.9828553   7.4091673   2.9961673
  44.0418553   8.0591673   3.5751673  43.7938553   6.7131673   3.4871673
  43.9638553   7.4021673   3.1541673  49.2088553  11.7381673   8.8651673
  48.7298553  12.0361673   8.1991673  48.8528553  10.9621673   9.0431673
  49.0858553  11.6671673   8.7931673  43.2058553   9.4561673   7.4271673
  42.3588553   9.2621673   7.5081673  43.5298553   9.2911673   8.2201673
  43.1278553   9.4031673   7.5561673  37.0538553   9.1491673   9.7431673
  37.7758553   9.6371673   9.7061673  36.7838553   9.1191673   8.9141673
  37.1208553   9.2171673   9.6151673  40.2838553   4.3201673   6.4781673
  41.1298553   4.1301673   6.5761673  39.9138553   3.5431673   6.3401673
  40.3538553   4.1771673   6.4721673  35.1048553   5.6581673   3.1331673
  35.5938553   5.3661673   3.7941673  35.2338553   5.0651673   2.5061673
  35.1958553   5.5271673   3.1381673  50.1398553   8.6801673   9.9841673
  50.1328553   7.9041673  10.3821673  49.2988553   8.9141673   9.9771673
  50.0148553   8.6001673  10.0421673  36.4488553  10.2011673  14.0211673
  36.0278553   9.6831673  13.4601673  36.0968553  10.9871673  13.8781673
  36.3348553  10.2411673  13.9171673  51.3958553   8.7511673   7.4211673
  51.1098553   9.1521673   8.1411673  52.2558553   8.6891673   7.5481673
  51.4808553   8.8011673   7.5461673  49.0578553   2.6751673  15.9611673
  48.5328553   3.1341673  16.4851673  48.6968553   1.8801673  15.9551673
  48.9268553   2.6251673  16.0371673  52.5268553  14.3841673   7.9501673
  52.8168553  14.6411673   7.1691673  53.2218553  14.4801673   8.4691673
  52.6728553  14.4361673   7.9111673  47.5498553   6.2441673  16.0371673
  47.6228553   6.3481673  16.9001673  46.9158553   6.8021673  15.8161673
  47.4668553   6.3421673  16.1321673  49.8178553   6.5631673  14.4021673
  50.1368553   7.3491673  14.6051673  49.4478553   6.2931673  15.1451673
  49.8108553   6.6391673  14.5421673  49.6138553   4.8211673   5.5911673
  48.8688553   4.4981673   5.9091673  49.6158553   5.6471673   5.8711673
  49.5038553   4.8951673   5.6791673  52.5158553   7.1051673  17.1371673
  52.4638553   6.7641673  16.3361673  53.2528553   7.5721673  17.1151673
  52.6168553   7.1241673  17.0151673  52.0538553  10.7811673  13.3431673
  52.6818553  10.2321673  13.0871673  51.9928553  11.3461673  12.6811673
  52.1378553  10.7841673  13.2071673  41.1878553  12.0121673  10.6391673
  40.8898553  12.6041673  11.2061673  41.2428553  12.4541673   9.8901673
  41.1518553  12.1651673  10.6121673  39.1668553  10.9621673  14.0371673
  38.3608553  10.6721673  14.2041673  39.0778553  11.8301673  14.0431673
  39.0348553  11.0471673  14.0621673  43.7038553   8.4351673  10.1301673
  44.1798553   8.8091673  10.7581673  42.8808553   8.5691673  10.3891673
  43.6528553   8.5101673  10.2611673  40.4138553   4.0381673  12.8711673
  40.5748553   3.2941673  13.2981673  40.3688553   3.7891673  12.0361673
  40.4308553   3.8911673  12.8111673  42.9678553  15.8281673   5.3581673
  43.5138553  16.5071673   5.4121673  42.6178553  15.9101673   4.5631673
  42.9968553  15.9411673   5.2481673  41.1508553  14.0561673   8.7471673
  40.5268553  14.6381673   8.5651673  41.3988553  13.7701673   7.9611673
  41.0948553  14.1001673   8.6041673  45.4598553  10.6901673  15.7361673
  46.2168553  10.9761673  15.4101673  44.9128553  10.7421673  15.0581673
  45.4908553  10.7401673  15.5871673  49.3688553  13.2401673  14.2401673
  49.7148553  13.5101673  14.9941673  49.6628553  13.8221673  13.6601673
  49.4638553  13.3661673  14.2661673  38.6748553   4.8991673   8.8121673
  39.1148553   4.7961673   8.0661673  39.2198553   4.5861673   9.4171673
  38.8198553   4.8381673   8.7911673  46.6908553   4.0011673  14.4041673
  46.0428553   4.4711673  14.7521673  47.2558553   3.9121673  15.0631673
  46.6788553   4.0571673  14.5531673  46.3788553   5.5381673  10.7021673
  46.6808553   5.9581673  11.4051673  46.4148553   4.6981673  10.9341673
  46.4288553   5.4761673  10.8401673  43.8038553  15.7051673  14.6271673
  44.2818553  15.1051673  14.2111673  43.4528553  15.2621673  15.2921673
  43.8228553  15.5511673  14.6641673  48.9268553   4.9851673   2.9541673
  49.1338553   4.7841673   3.7781673  49.6828553   5.2531673   2.6121673
  49.0688553   4.9951673   3.0251673  50.3918553   9.0121673   2.8081673
  50.8678553   8.2831673   2.7601673  49.5708553   8.7261673   2.7321673
  50.3408553   8.8621673   2.7891673  43.8628553  10.9241673  13.6471673
  43.0678553  10.8601673  13.9981673  43.9338553  11.7711673  13.4521673
  43.7558553  11.0391673  13.6701673  39.6928553  17.1311673   8.9641673
  39.7038553  17.1901673   9.8341673  39.2678553  16.3841673   8.8141673
  39.6318553  17.0291673   9.0701673  46.6078553  10.1791673   5.1631673
  46.6838553  10.5201673   5.9621673  46.7768553   9.3321673   5.2841673
  46.6438553  10.1041673   5.2991673  44.1298553   9.4531673   4.7281673
  43.8318553   9.1381673   5.4851673  44.8248553   9.9261673   4.9631673
  44.1888553   9.4761673   4.8751673  44.3518553  13.5711673  12.7551673
  45.0388553  13.4571673  13.2801673  44.4858553  14.3621673  12.4111673
  44.4728553  13.6711673  12.7821673  52.5278553   6.1801673  14.5661673
  51.6728553   6.0581673  14.6921673  52.6808553   5.7851673  13.8031673
  52.4238553   6.1031673  14.4721673  47.0408553   6.8451673  13.1421673
  46.7858553   6.1261673  13.5641673  47.8618553   6.9611673  13.4121673
  47.1248553   6.7561673  13.2441673  36.4568553  16.6291673  14.4061673
  35.8028553  16.0601673  14.5041673  36.0818553  17.4021673  14.5571673
  36.3048553  16.6591673  14.4431673  44.9748553   8.0351673  16.3291673
  45.2978553   8.7211673  15.8971673  44.2708553   8.3581673  16.7311673
  44.9178553   8.1841673  16.3241673  48.0588553  16.4091673   7.2581673
  47.6078553  17.0521673   7.6371673  48.7668553  16.3301673   7.7631673
  48.0968553  16.4921673   7.3891673  44.7598553  11.4991673  10.1881673
  44.0658553  11.9011673  10.5311673  45.4368553  11.9321673  10.5271673
  44.7568553  11.6221673  10.2891673  50.1368553  14.0921673  16.7681673
  50.9128553  13.7021673  16.8511673  49.6678553  13.7561673  17.4231673
  50.1818553  13.9851673  16.8771673  37.8278553   5.0371673  12.5351673
  38.2028553   5.6561673  12.0481673  38.5018553   4.5631673  12.8201673
  37.9828553   5.0591673  12.5051673  35.6028553   3.4851673  11.8101673
  35.6798553   3.3161673  10.9571673  36.3488553   3.8911673  12.0071673
  35.7238553   3.5201673  11.7131673  45.0818553  13.0901673   3.3571673
  44.8768553  13.9231673   3.1981673  44.3068553  12.7081673   3.4791673
  44.9368553  13.1571673   3.3521673  50.2638553   6.2711673  11.6061673
  50.2618553   5.4081673  11.7301673  50.3308553   6.5951673  12.4131673
  50.2738553   6.1911673  11.7431673  34.9998553   8.7111673  12.0341673
  35.3198553   8.9301673  11.2531673  34.8998553   7.8461673  11.9791673
  35.0318553   8.6161673  11.9111673  48.7348553   1.7771673   9.0421673
  49.5898553   1.8761673   9.1871673  48.3658553   2.3301673   9.6071673
  48.8068553   1.8741673   9.1471673  39.7628553   8.0031673  13.4191673
  39.3668553   8.7771673  13.4941673  39.3568553   7.6301673  12.7431673
  39.6448553   8.0621673  13.3301673  49.0388553   7.0571673   7.5331673
  49.7048553   7.5981673   7.6931673  48.6938553   7.3681673   6.7941673
  49.0858553   7.1831673   7.4481673  49.3518553  15.1231673   3.3401673
  49.1778553  14.4691673   3.8901673  50.0648553  14.8521673   2.9171673
  49.4318553  14.9861673   3.3591673  47.0268553  12.5761673  11.0311673
  47.2328553  12.8771673  11.8231673  46.9658553  13.2981673  10.5461673
  47.0478553  12.7271673  11.0761673  46.5608553  16.7901673  15.2771673
  45.8078553  16.7721673  14.8361673  46.7288553  17.6421673  15.3611673
  46.4748553  16.9131673  15.2241673  41.7978553   6.0571673  14.4471673
  41.4758553   5.4811673  13.8771673  41.4388553   6.8121673  14.2011673
  41.6978553   6.0831673  14.3271673  51.8388553  11.2151673  10.4891673
  51.8068553  10.3531673  10.3541673  51.1458553  11.5171673  10.0551673
  51.7318553  11.1321673  10.4051673  40.2328553  16.4131673  14.6951673
  40.2738553  16.5391673  15.5581673  40.8838553  15.8531673  14.5391673
  40.3348553  16.3491673  14.8001673  49.9438553  14.4751673   9.2861673
  50.4708553  14.3921673   8.5951673  49.5528553  13.6971673   9.3401673
  49.9638553  14.3481673   9.1921673  37.8258553  14.7961673  16.0551673
  38.4208553  15.2271673  16.5271673  37.4618553  15.4201673  15.5661673
  37.8598553  14.9521673  16.0521673  45.8168553   5.7271673   5.9871673
  46.3678553   5.1201673   6.2871673  45.3918553   5.9901673   6.7021673
  45.8358553   5.6761673   6.1361673  36.0648553   4.3771673   5.4731673
  35.6968553   4.6791673   6.2041673  36.5988553   3.7481673   5.7571673
  36.0888553   4.3291673   5.6231673  35.7528553  12.7851673  12.9841673
  35.1788553  13.2011673  13.4931673  36.4858553  13.2501673  13.0791673
  35.7768553  12.9151673  13.0731673  47.7868553   7.5581673   2.5491673
  47.8548553   6.7081673   2.7301673  46.9638553   7.6441673   2.2711673
  47.6748553   7.4451673   2.5351673  51.0608553   8.9311673  15.7001673
  51.6948553   8.7611673  16.2741673  51.4778553   9.3341673  15.0481673
  51.2158553   8.9661673  15.6891673  51.6858553   3.4951673  16.4381673
  51.4898553   4.1391673  16.9931673  50.9638553   3.0051673  16.4301673
  51.5508553   3.5181673  16.5191673  51.5848553   4.4361673   9.4091673
  50.7518553   4.6861673   9.3371673  51.5288553   3.5961673   9.6381673
  51.4538553   4.3491673   9.4321673  48.4718553   9.0421673  17.0551673
  49.3428553   9.0061673  17.0191673  48.2528553   9.4621673  16.3231673
  48.5688553   9.0981673  16.9421673  38.2258553  14.8671673   8.2361673
  38.1468553  14.0571673   7.9201673  37.7818553  15.3541673   7.6641673
  38.1488553  14.8191673   8.1051673  35.7978553  17.1111673  11.8171673
  36.2908553  17.0551673  12.5351673  35.9858553  16.3781673  11.3821673
  35.8988553  16.9941673  11.8591673  26.3710113  55.0614913  79.9891313
  26.1260113  55.5494913  79.3091313  27.2340113  54.9884913  79.8891313
  26.4620113  55.1224913  79.8741313  26.1800113  61.9774913  84.6601313
  25.6560113  62.5734913  85.0231313  26.5770113  61.6094913  85.3441313
  26.1610113  62.0114913  84.8151313  16.0490113  66.1174913  80.1161313
  15.6080113  66.2354913  80.8591313  15.7660113  65.3424913  79.8311313
  15.9420113  66.0204913  80.1841313  32.3240113  69.4184913  77.6311313
  33.0250113  68.8994913  77.6271313  31.7370113  68.9734913  77.1621313
  32.3410113  69.2754913  77.5611313  15.7920113  59.9094913  76.6231313
  15.0140113  60.0714913  76.2631313  15.8310113  59.0384913  76.6451313
  15.6830113  59.8044913  76.5731313  18.9310113  65.1724913  75.2951313
  18.5390113  64.8014913  74.6091313  18.8510113  64.5744913  75.9241313
  18.8610113  65.0294913  75.2861313  28.8510113  63.0444913  81.3361313
  28.9310113  63.0484913  80.4671313  28.2670113  62.4124913  81.4851313
  28.7760113  62.9514913  81.2301313  18.5580113  66.8134913  79.1951313
  19.1660113  66.6434913  79.7981313  17.8070113  66.6734913  79.6161313
  18.5370113  66.7674913  79.3461313  22.8400113  56.1484913  79.1441313
  22.7700113  56.8254913  78.5981313  23.5810113  55.7604913  78.8951313
  22.9390113  56.1914913  79.0261313  17.4490113  69.9044913  75.2721313
  17.9160113  69.9884913  74.5401313  17.9040113  69.3264913  75.7411313
  17.5850113  69.8314913  75.2331313  15.9890113  68.8524913  86.3711313
  16.1180113  68.5724913  87.1871313  15.3790113  68.3114913  86.0621313
  15.9180113  68.7314913  86.4461313  17.4350113  63.3734913  80.5731313
  16.9730113  62.9814913  79.9461313  18.1350113  62.8604913  80.6651313
  17.4700113  63.2404913  80.4941313  21.9430113  58.9834913  85.9201313
  22.6210113  59.0014913  85.3711313  21.8980113  58.1474913  86.1651313
  22.0360113  58.8624913  85.8751313  19.4360113  61.4734913  80.5961313
  20.2530113  61.2864913  80.8391313  18.9590113  60.8594913  80.9921313
  19.4860113  61.3554913  80.6911313  23.6400113  67.4544913  83.2061313
  23.9880113  66.6554913  83.2361313  24.3050113  67.9584913  82.9511313
  23.7900113  67.4104913  83.1731313  23.6970113  66.9034913  79.4171313
  24.0280113  66.2594913  79.9031313  23.9370113  66.6924913  78.6061313
  23.7810113  66.7774913  79.3691313  20.0330113  56.5674913  79.8621313
  19.7370113  57.0684913  79.2121313  20.9000113  56.6454913  79.8051313
  20.1170113  56.6534913  79.7581313  23.0120113  55.7094913  82.0851313
  23.0850113  56.5694913  82.2141313  22.9740113  55.6344913  81.2171313
  23.0170113  55.8254913  81.9761313  27.6850113  58.6354913  74.3841313
  27.2350113  59.3164913  74.6911313  27.7990113  58.1314913  75.0871313
  27.6360113  58.6614913  74.5331313  15.8910113  61.1344913  83.5861313
  15.6350113  61.9654913  83.5111313  15.2270113  60.7514913  84.0031313
  15.7550113  61.2004913  83.6371313  21.6410113  68.6884913  78.9661313
  21.0620113  68.4134913  79.5581313  22.2650113  68.0794913  78.9911313
  21.6480113  68.5584913  79.0571313  18.9200113  55.9514913  84.0771313
  18.3990113  55.3234913  83.7691313  19.5110113  55.5144913  84.5481313
  18.9310113  55.7934913  84.1011313  33.0790113  58.6084913  80.6791313
  32.7330113  59.2864913  81.1051313  32.4430113  58.0104913  80.6951313
  32.9340113  58.6204913  80.7441313  18.1640113  68.0014913  82.9171313
  18.5870113  67.6454913  82.2431313  18.4880113  67.5794913  83.6091313
  18.2740113  67.8864913  82.9201313  25.2020113  60.2504913  80.3001313
  25.4890113  60.0184913  79.5101313  25.9340113  60.3294913  80.7691313
  25.3520113  60.2274913  80.2531313  25.9240113  60.5894913  75.4211313
  26.2050113  61.3774913  75.6701313  25.1480113  60.7544913  75.0581313
  25.8510113  60.7304913  75.4041313  32.7540113  56.9314913  86.0481313
  33.5110113  57.0034913  85.6201313  32.8170113  56.1584913  86.4471313
  32.8750113  56.8284913  86.0431313  24.7830113  68.7604913  75.2371313
  24.6020113  69.3054913  75.8941313  25.5490113  69.0504913  74.9361313
  24.8690113  68.8844913  75.2901313  28.2900113  56.6564913  76.2911313
  28.8300113  55.9744913  76.3671313  28.3520113  57.0544913  77.0651313
  28.3790113  56.6144913  76.4171313  16.2440113  57.8244913  78.8601313
  16.1300113  56.9604913  78.8911313  15.7690113  58.1184913  79.5301313
  16.1570113  57.7404913  78.9631313  25.5480113  59.0324913  77.6051313
  25.0400113  58.3704913  77.3511313  25.6000113  59.5364913  76.8951313
  25.4810113  59.0094913  77.4631313  25.5480113  55.9734913  77.4961313
  25.0930113  55.5714913  76.8701313  26.3210113  56.1284913  77.1211313
  25.5950113  55.9374913  77.3481313  24.1460113  58.3404913  82.0181313
  24.2200113  58.9084913  81.3601313  24.2670113  58.8324913  82.7281313
  24.1740113  58.4974913  82.0261313  29.3710113  68.1754913  80.4301313
  30.0720113  67.6934913  80.6191313  28.7110113  67.6064913  80.4751313
  29.3770113  68.0204913  80.4641313  18.7540113  54.1634913  80.3661313
  19.2900113  54.8514913  80.3561313  18.7570113  53.8894913  79.5381313
  18.8330113  54.2244913  80.2421313  21.7100113  64.5964913  84.3911313
  21.8820113  64.3864913  85.2201313  21.0550113  64.0624913  84.1751313
  21.6390113  64.4864913  84.4821313  27.9380113  58.5104913  87.9061313
  27.8430113  58.8294913  88.7121313  27.3450113  57.8714913  87.8681313
  27.8360113  58.4624913  88.0201313  22.4600113  64.5344913  86.9811313
  22.5130113  65.3814913  87.1831313  22.1750113  64.1644913  87.7181313
  22.4260113  64.6044913  87.1191313  28.6370113  65.2294913  86.1111313
  28.1230113  64.8174913  86.6821313  28.5110113  66.0734913  86.2921313
  28.5430113  65.2934913  86.2221313  29.1940113  54.4544913  80.7421313
  29.2430113  54.1364913  81.5531313  29.5170113  53.8104913  80.2491313
  29.2490113  54.3124913  80.7891313  31.6580113  58.6904913  89.0501313
  32.4300113  58.4654913  89.3871313  31.1830113  58.9074913  89.7501313
  31.7020113  58.6894913  89.2031313  19.2020113  57.9734913  82.0201313
  19.4740113  57.5434913  81.3121313  19.0260113  57.3374913  82.5911313
  19.2160113  57.8164913  82.0001313  31.8900113  65.6684913  76.2381313
  32.0090113  65.3814913  77.0531313  32.6970113  65.6894913  75.9081313
  32.0260113  65.6294913  76.3101313  19.0260113  65.4004913  81.5691313
  19.8770113  65.3204913  81.3961313  18.6690113  64.7184913  81.1571313
  19.0990113  65.2874913  81.4821313  17.3430113  59.0754913  85.1021313
  18.1860113  59.2954913  85.0591313  16.9540113  59.6484913  84.5711313
  17.4100113  59.1924913  85.0171313  29.7850113  62.2054913  75.8231313
  29.5650113  62.9364913  75.4011313  29.3370113  62.2564913  76.5701313
  29.6860113  62.3204913  75.8711313  21.3940113  65.4074913  79.8041313
  22.1070113  65.9024913  79.8941313  21.6160113  64.8404913  79.1781313
  21.5320113  65.3964913  79.7251313  33.9720113  57.0664913  75.2761313
  33.3100113  56.4984913  75.2991313  33.7790113  57.5784913  74.5961313
  33.8460113  57.0584913  75.1791313  15.5500113  67.0504913  83.1241313
  14.8830113  67.5384913  83.4001313  16.2300113  67.5954913  83.1531313
  15.5520113  67.2024913  83.1691313  34.2950113  61.4444913  87.8321313
  34.5100113  60.6444913  87.5561313  33.4450113  61.5044913  87.6431313
  34.2010113  61.3354913  87.7631313  15.6160113  63.7344913  78.2271313
  15.4310113  62.8954913  78.3791313  16.2750113  63.6984913  77.6571313
  15.6860113  63.6054913  78.1651313  31.9740113  56.6244913  77.5551313
  32.7200113  56.2174913  77.7541313  32.2370113  57.3394913  77.1301313
  32.1230113  56.6704913  77.5221313  25.9170113  69.1104913  82.1311313
  25.3940113  69.7444913  81.8381313  26.2270113  68.7464913  81.4021313
  25.8850113  69.1504913  81.9801313  15.7880113  67.8984913  77.8021313
  16.3400113  68.4674913  78.1661313  15.5560113  67.3834913  78.4671313
  15.8350113  67.9064913  77.9541313  19.9920113  66.8984913  84.8911313
  20.4590113  67.1874913  85.5691313  20.5640113  66.4204913  84.4371313
  20.1460113  66.8704913  84.9241313  28.4280113  58.9124913  82.6281313
  28.7720113  59.0644913  83.4151313  27.9750113  58.1744913  82.7411313
  28.4120113  58.8254913  82.7611313  15.6180113  66.3474913  75.4301313
  16.3740113  65.9154913  75.4881313  15.6330113  66.8794913  76.1211313
  15.7320113  66.3624913  75.5411313  16.5580113  64.5684913  83.4351313
  16.9890113  64.4394913  82.6881313  16.3530113  65.4164913  83.4091313
  16.5910113  64.6744913  83.3211313  22.9040113  58.1324913  77.0851313
  22.9020113  58.0154913  76.2201313  22.7230113  58.9804913  77.1771313
  22.8770113  58.2404913  76.9711313  20.6420113  68.0844913  81.7171313
  20.7680113  68.9274913  81.9041313  21.3100113  67.6854913  82.1131313
  20.7600113  68.1504913  81.8031313  19.2570113  60.9644913  76.7191313
  19.1290113  60.5164913  77.4571313  18.6750113  60.6224913  76.1671313
  19.1520113  60.8474913  76.7471313  19.4240113  62.7944913  83.3181313
  18.6430113  62.7354913  82.9351313  19.4960113  62.0424913  83.7551313
  19.3190113  62.6754913  83.3261313  19.8540113  62.5314913  86.7861313
  19.8790113  61.8564913  86.2351313  19.2080113  63.0274913  86.4741313
  19.7630113  62.5044913  86.6591313  29.7490113  60.2444913  85.1821313
  29.0870113  60.5724913  85.6451313  29.9360113  60.8784913  84.6131313
  29.6790113  60.3864913  85.1661313  26.3940113  56.1504913  88.6111313
  26.5430113  55.3254913  88.3681313  26.7730113  56.2054913  89.3951313
  26.4720113  56.0364913  88.6911313  27.9420113  58.2134913  78.6931313
  28.4320113  58.9304913  78.6161313  27.1520113  58.4744913  78.4301313
  27.8980113  58.3574913  78.6431313  24.5240113  59.6834913  84.4181313
  25.0040113  60.3824913  84.6261313  24.8970113  59.0364913  84.8691313
  24.6500113  59.6914913  84.5151313  26.7130113  62.8524913  76.6921313
  26.7050113  63.5744913  76.2021313  26.0740113  62.9874913  77.2691313
  26.6180113  62.9794913  76.7051313  31.6850113  66.7224913  80.6731313
  32.0410113  66.3724913  81.3881313  31.6770113  66.0614913  80.1031313
  31.7370113  66.5724913  80.6941313  27.7430113  66.6394913  83.9171313
  26.9460113  66.8634913  84.1911313  28.0010113  66.0454913  84.5021313
  27.6630113  66.5844913  84.0441313  21.3060113  55.1944913  76.3531313
  21.4030113  55.0874913  77.2141313  20.5980113  55.7004913  76.2881313
  21.2160113  55.2534913  76.4711313  31.0030113  64.6374913  88.7631313
  31.0580113  64.7624913  87.9011313  31.7560113  64.9574913  89.0651313
  31.1220113  64.7024913  88.6801313  18.4280113  63.5014913  77.5961313
  18.7520113  62.7224913  77.3741313  19.0740113  63.8694913  78.0511313
  18.5710113  63.4404913  77.6301313  26.7340113  64.4434913  88.3631313
  26.5790113  65.0534913  88.9671313  27.2680113  63.8854913  88.7691313
  26.7900113  64.4514913  88.5121313  15.4250113  55.1624913  78.5641313
  15.5540113  54.4544913  78.0721313  15.0580113  54.8444913  79.2891313
  15.3900113  55.0104913  78.5991313  25.1180113  62.8434913  79.0211313
  25.1770113  63.4934913  79.6001313  24.9290113  62.1474913  79.5121313
  25.0990113  62.8364913  79.1791313  30.3440113  67.1724913  84.8901313
  29.8650113  67.4704913  84.2241313  29.9880113  66.3964913  85.0681313
  30.2210113  67.1014913  84.8181313  19.6140113  57.3604913  75.5331313
  19.1030113  57.4134913  74.8271313  20.3980113  57.6004913  75.2371313
  19.6540113  57.4034913  75.3851313  24.3410113  64.8904913  83.4521313
  23.4940113  64.6964913  83.5331313  24.6650113  64.7254913  84.2451313
  24.2630113  64.8374913  83.5811313  18.1890113  64.5834913  85.7681313
  18.9110113  65.0714913  85.7311313  17.9190113  64.5534913  84.9391313
  18.2560113  64.6514913  85.6401313  21.4190113  59.7544913  82.5031313
  22.2650113  59.5644913  82.6011313  21.0490113  58.9774913  82.3651313
  21.4890113  59.6114913  82.4971313  16.2400113  61.0924913  79.1581313
  16.7290113  60.8004913  79.8191313  16.3690113  60.4994913  78.5311313
  16.3310113  60.9614913  79.1631313  31.2750113  64.1144913  86.0091313
  31.2680113  63.3384913  86.4071313  30.4340113  64.3484913  86.0021313
  31.1500113  64.0344913  86.0671313  20.7650113  62.5264913  74.6441313
  20.1550113  62.1214913  75.1181313  20.3790113  62.6444913  73.8711313
  20.6180113  62.4834913  74.6001313  17.5840113  65.6354913  90.0461313
  17.1630113  65.1174913  89.4851313  17.2320113  66.4214913  89.9031313
  17.4700113  65.6754913  89.9421313  32.5310113  64.1854913  83.4461313
  32.2450113  64.5864913  84.1661313  33.3910113  64.1234913  83.5731313
  32.6160113  64.2354913  83.5711313  22.2200113  60.9874913  77.3541313
  22.4920113  61.8134913  77.4211313  21.3570113  61.0624913  77.2581313
  22.1330113  61.1204913  77.3491313  15.7000113  56.9574913  83.8901313
  15.7440113  57.3014913  83.0891313  16.4550113  57.1944913  84.2571313
  15.8180113  57.0434913  83.8261313  33.6620113  69.8184913  83.9751313
  33.9520113  70.0754913  83.1941313  34.3570113  69.9144913  84.4941313
  33.8080113  69.8704913  83.9361313  30.2670113  68.4214913  75.9571313
  30.6010113  67.6154913  75.9921313  29.5120113  68.3494913  76.3871313
  30.2050113  68.2914913  76.0261313  30.7490113  60.2554913  81.6161313
  30.0040113  59.9324913  81.9341313  30.7510113  61.0814913  81.8961313
  30.6390113  60.3294913  81.7041313  33.1890113  66.2154913  89.3681313
  33.8170113  65.6664913  89.1121313  33.1280113  66.7804913  88.7061313
  33.2730113  66.2184913  89.2321313  27.6410113  66.2964913  75.3601313
  28.3250113  65.7824913  75.1911313  27.2240113  66.3424913  74.5951313
  27.6800113  66.2274913  75.2221313  22.3230113  67.4464913  86.6641313
  22.0250113  68.0384913  87.2311313  22.3780113  67.8884913  85.9151313
  22.2870113  67.5994913  86.6371313  29.6610113  56.5854913  89.0771313
  30.4050113  57.0374913  89.0141313  29.0950113  57.0554913  88.6081313
  29.6880113  56.7224913  88.9991313  24.8390113  63.8694913  86.1551313
  25.3150113  64.2434913  86.7831313  24.0160113  64.0034913  86.4141313
  24.7880113  63.9444913  86.2861313  21.5490113  59.4724913  88.8961313
  21.7100113  58.7284913  89.3231313  21.5040113  59.2234913  88.0611313
  21.5660113  59.3254913  88.8361313  30.9460113  54.5654913  86.7471313
  30.6660113  55.3904913  86.7031313  31.6620113  54.6184913  87.2431313
  31.0110113  54.6954913  86.8141313  23.3010113  55.2804913  88.7761313
  24.0060113  55.6004913  88.3741313  23.5420113  54.4734913  89.0031313
  23.4400113  55.2084913  88.7501313  22.2860113  69.4904913  84.7721313
  21.6620113  70.0724913  84.5901313  22.5340113  69.2044913  83.9861313
  22.2300113  69.5344913  84.6291313  32.3670113  60.8204913  75.6041313
  32.7450113  61.4974913  75.2041313  31.5250113  61.0444913  75.6351313
  32.2980113  60.9534913  75.5491313  23.8800113  64.2664913  74.6871313
  23.0750113  64.0894913  74.4021313  23.8470113  65.1174913  74.8791313
  23.7560113  64.3654913  74.6741313  19.8100113  60.3334913  84.8371313
  20.2500113  60.2304913  84.0911313  20.3550113  60.0204913  85.4421313
  19.9550113  60.2724913  84.8161313  27.5140113  60.9724913  86.7271313
  27.8160113  61.3924913  87.4301313  27.5500113  60.1324913  86.9591313
  27.5640113  60.9104913  86.8651313  30.0620113  60.4194913  78.9791313
  30.2690113  60.2184913  79.8031313  30.8180113  60.6874913  78.6371313
  30.2040113  60.4294913  79.0501313  23.3570113  55.3184913  84.8841313
  22.5310113  55.1694913  85.1211313  23.3170113  55.3534913  84.0131313
  23.2290113  55.3014913  84.7901313  31.0840113  56.5024913  80.4531313
  30.3700113  56.0314913  80.6241313  30.9220113  56.8434913  79.6671313
  30.9550113  56.4834913  80.3621313  31.5270113  64.4464913  78.8331313
  32.0030113  63.7174913  78.7851313  30.7060113  64.1604913  78.7571313
  31.4760113  64.2964913  78.8141313  24.9980113  66.3584913  89.6721313
  24.2030113  66.2944913  90.0231313  25.0690113  67.2054913  89.4771313
  24.8910113  66.4734913  89.6951313  18.9860113  58.4604913  78.1441313
  19.1120113  58.1314913  77.3461313  18.1740113  58.2114913  78.3431313
  18.8850113  58.3754913  78.0561313  27.7430113  65.6134913  81.1881313
  27.8190113  65.9544913  81.9871313  27.9120113  64.7664913  81.3091313
  27.7790113  65.5384913  81.3241313  25.2650113  64.8874913  80.7531313
  24.9670113  64.5724913  81.5101313  25.9600113  65.3604913  80.9881313
  25.3240113  64.9104913  80.9001313  25.4870113  69.0054913  88.7801313
  26.1740113  68.8914913  89.3051313  25.6210113  69.7964913  88.4361313
  25.6080113  69.1054913  88.8071313  28.1760113  62.2794913  89.1671313
  27.9210113  61.5604913  89.5891313  28.9970113  62.3954913  89.4371313
  28.2600113  62.1904913  89.2691313  25.8950113  66.9334913  86.2131313
  25.2010113  67.3354913  86.5561313  26.5720113  67.3664913  86.5521313
  25.8920113  67.0564913  86.3141313  18.9630113  60.4714913  88.5601313
  19.3380113  61.0904913  88.0731313  19.6370113  59.9974913  88.8451313
  19.1180113  60.4934913  88.5301313  16.7380113  58.9194913  87.8351313
  16.8150113  58.7504913  86.9821313  17.4840113  59.3254913  88.0321313
  16.8590113  58.9544913  87.7381313  32.2970113  61.5594913  78.2751313
  32.4000113  61.5014913  77.4111313  33.0380113  61.2274913  78.5931313
  32.4220113  61.5024913  78.1941313  26.2170113  68.5244913  79.3821313
  26.0120113  69.3574913  79.2231313  25.4420113  68.1424913  79.5041313
  26.0720113  68.5914913  79.3771313  31.3990113  61.7054913  87.6311313
  31.3970113  60.8424913  87.7551313  31.4660113  62.0294913  88.4381313
  31.4090113  61.6254913  87.7681313  16.1350113  64.1454913  88.0591313
  16.4550113  64.3644913  87.2781313  16.0350113  63.2804913  88.0041313
  16.1670113  64.0504913  87.9361313  17.5910113  60.0814913  74.6771313
  16.9190113  60.0954913  75.2331313  17.6860113  59.2334913  74.4931313
  17.5060113  59.9584913  74.7321313  26.2720113  56.6954913  82.2671313
  25.5720113  57.2134913  82.2111313  26.3100113  56.3154913  81.4831313
  26.1740113  56.7164913  82.1431313  21.5790113  68.7864913  75.7911313
  22.0200113  68.8664913  76.5391313  20.7740113  68.5704913  76.0491313
  21.5250113  68.7664913  75.9401313  29.8700113  57.2114913  85.0671313
  30.7250113  57.3104913  85.2121313  29.5010113  57.7644913  85.6321313
  29.9420113  57.3084913  85.1721313  20.8980113  63.4374913  89.4441313
  20.5020113  64.2114913  89.5191313  20.4920113  63.0644913  88.7681313
  20.7800113  63.4964913  89.3551313  30.1740113  62.4914913  83.5581313
  30.8400113  63.0324913  83.7181313  29.8290113  62.8024913  82.8191313
  30.2210113  62.6174913  83.4731313  18.9080113  67.8564913  76.3921313
  18.6640113  67.5494913  77.1721313  18.8750113  67.1534913  75.8761313
  18.8670113  67.7074913  76.4311313  21.7270113  66.1014913  75.1351313
  20.9090113  65.8334913  75.2751313  21.6990113  66.9534913  75.3201313
  21.6020113  66.1884913  75.1831313  21.3270113  56.4144913  86.8941313
  20.4630113  56.4984913  86.9741313  21.5470113  55.9004913  87.5631313
  21.2320113  56.3514913  87.0051313  33.3450113  55.0494913  88.2231313
  33.2930113  55.0054913  89.0931313  34.0320113  54.5464913  88.0331313
  33.4390113  54.9694913  88.3231313  25.4300113  57.1624913  85.2681313
  24.6930113  56.7084913  85.3811313  26.0010113  56.7604913  85.7911313
  25.4050113  57.0354913  85.3621313  28.1620113  68.0104913  87.0561313
  28.3680113  68.3114913  87.8481313  28.1010113  68.7324913  86.5711313
  28.1830113  68.1614913  87.1011313  23.7290113  54.7434913  75.0991313
  23.8070113  54.9904913  74.2661313  22.9860113  55.1204913  75.3571313
  23.6310113  54.8354913  75.0141313  32.9740113  66.6494913  86.5141313
  32.9420113  65.7874913  86.3791313  32.2810113  66.9514913  86.0801313
  32.8670113  66.5664913  86.4301313  31.0790113  69.9094913  85.3111313
  31.6060113  69.8264913  84.6201313  30.6880113  69.1314913  85.3651313
  31.0990113  69.7824913  85.2171313  18.5470113  56.4974913  87.5421313
  18.2040113  55.7304913  87.3081313  17.8520113  57.0214913  87.6061313
  18.3940113  56.4614913  87.5171313  27.5930113  55.3534913  84.5191313
  28.2630113  55.8974913  84.6461313  27.0900113  55.7774913  83.9461313
  27.6180113  55.4964913  84.4531313  26.9520113  61.1614913  82.0121313
  27.5030113  60.5544913  82.3121313  26.5270113  61.4244913  82.7271313
  26.9710113  61.1104913  82.1611313  17.2000113  59.8114913  81.4981313
  16.8320113  60.1134913  82.2291313  17.7340113  59.1824913  81.7821313
  17.2240113  59.7634913  81.6481313  16.8880113  68.2194913  89.0091313
  16.3140113  68.6354913  89.5181313  17.6210113  68.6844913  89.1041313
  16.9120113  68.3494913  89.0981313  28.9220113  62.9924913  78.5741313
  28.9900113  62.1424913  78.7551313  28.0990113  63.0784913  78.2961313
  28.8100113  62.8794913  78.5601313  22.8410113  63.8834913  77.5121313
  22.9410113  64.0224913  76.6571313  23.6590113  63.8234913  77.8081313
  22.9760113  63.8944913  77.4291313  28.0760113  68.2124913  77.3141313
  27.8250113  68.0844913  78.1401313  27.7590113  67.5174913  76.8931313
  27.9920113  68.0914913  77.3741313  32.7200113  59.8704913  85.4341313
  31.8870113  60.1204913  85.3621313  32.6640113  59.0304913  85.6631313
  32.5890113  59.7834913  85.4571313  24.9620113  66.4204913  76.7441313
  25.6790113  66.0734913  76.3881313  24.9280113  67.2204913  76.3961313
  25.0630113  66.4874913  76.6401313  26.3710113  55.0614913  60.9828903
  26.1260113  55.5494913  60.3028903  27.2340113  54.9884913  60.8828903
  26.4620113  55.1224913  60.8678903  26.1800113  61.9774913  65.6538903
  25.6560113  62.5734913  66.0168903  26.5770113  61.6094913  66.3378903
  26.1610113  62.0114913  65.8088903  16.0490113  66.1174913  61.1098903
  15.6080113  66.2354913  61.8528903  15.7660113  65.3424913  60.8248903
  15.9420113  66.0204913  61.1778903  32.3240113  69.4184913  58.6248903
  33.0250113  68.8994913  58.6208903  31.7370113  68.9734913  58.1558903
  32.3410113  69.2754913  58.5548903  15.7920113  59.9094913  57.6168903
  15.0140113  60.0714913  57.2568903  15.8310113  59.0384913  57.6388903
  15.6830113  59.8044913  57.5668903  18.9310113  65.1724913  56.2888903
  18.5390113  64.8014913  55.6028903  18.8510113  64.5744913  56.9178903
  18.8610113  65.0294913  56.2798903  28.8510113  63.0444913  62.3298903
  28.9310113  63.0484913  61.4608903  28.2670113  62.4124913  62.4788903
  28.7760113  62.9514913  62.2238903  18.5580113  66.8134913  60.1888903
  19.1660113  66.6434913  60.7918903  17.8070113  66.6734913  60.6098903
  18.5370113  66.7674913  60.3398903  22.8400113  56.1484913  60.1378903
  22.7700113  56.8254913  59.5918903  23.5810113  55.7604913  59.8888903
  22.9390113  56.1914913  60.0198903  17.4490113  69.9044913  56.2658903
  17.9160113  69.9884913  55.5338903  17.9040113  69.3264913  56.7348903
  17.5850113  69.8314913  56.2268903  15.9890113  68.8524913  67.3648903
  16.1180113  68.5724913  68.1808903  15.3790113  68.3114913  67.0558903
  15.9180113  68.7314913  67.4398903  22.5630113  66.3774913  72.4318903
  22.3270113  66.3744913  73.2718903  21.8150113  66.2294913  72.0078903
  22.4170113  66.3544913  72.4928903  17.4350113  63.3734913  61.5668903
  16.9730113  62.9814913  60.9398903  18.1350113  62.8604913  61.6588903
  17.4700113  63.2404913  61.4878903  21.9430113  58.9834913  66.9138903
  22.6210113  59.0014913  66.3648903  21.8980113  58.1474913  67.1588903
  22.0360113  58.8624913  66.8688903  19.4360113  61.4734913  61.5898903
  20.2530113  61.2864913  61.8328903  18.9590113  60.8594913  61.9858903
  19.4860113  61.3554913  61.6848903  23.6400113  67.4544913  64.1998903
  23.9880113  66.6554913  64.2298903  24.3050113  67.9584913  63.9448903
  23.7900113  67.4104913  64.1668903  23.6970113  66.9034913  60.4108903
  24.0280113  66.2594913  60.8968903  23.9370113  66.6924913  59.5998903
  23.7810113  66.7774913  60.3628903  25.6650113  61.0344913  71.7498903
  24.8170113  60.9354913  71.5718903  25.6940113  61.7794913  72.2038903
  25.5440113  61.1304913  71.7908903  20.0330113  56.5674913  60.8558903
  19.7370113  57.0684913  60.2058903  20.9000113  56.6454913  60.7988903
  20.1170113  56.6534913  60.7518903  30.2230113  53.9944913  70.8638903
  30.0650113  54.7634913  70.4818903  29.4510113  53.7744913  71.2078903
  30.0850113  54.0754913  70.8588903  23.0120113  55.7094913  63.0788903
  23.0850113  56.5694913  63.2078903  22.9740113  55.6344913  62.2108903
  23.0170113  55.8254913  62.9698903  27.6850113  58.6354913  55.3778903
  27.2350113  59.3164913  55.6848903  27.7990113  58.1314913  56.0808903
  27.6360113  58.6614913  55.5268903  15.8910113  61.1344913  64.5798903
  15.6350113  61.9654913  64.5048903  15.2270113  60.7514913  64.9968903
  15.7550113  61.2004913  64.6308903  21.6410113  68.6884913  59.9598903
  21.0620113  68.4134913  60.5518903  22.2650113  68.0794913  59.9848903
  21.6480113  68.5584913  60.0508903  18.9200113  55.9514913  65.0708903
  18.3990113  55.3234913  64.7628903  19.5110113  55.5144913  65.5418903
  18.9310113  55.7934913  65.0948903  22.2260113  58.0844913  74.3688903
  22.3430113  57.6304913  73.6328903  22.5140113  58.8824913  74.1658903
  22.2860113  58.1354913  74.2298903  33.0790113  58.6084913  61.6728903
  32.7330113  59.2864913  62.0988903  32.4430113  58.0104913  61.6888903
  32.9340113  58.6204913  61.7378903  17.9590113  57.6814913  73.3528903
  17.1810113  57.2914913  73.2808903  18.4500113  57.2694913  72.7618903
  17.9160113  57.5624913  73.2548903  18.1640113  68.0014913  63.9108903
  18.5870113  67.6454913  63.2368903  18.4880113  67.5794913  64.6028903
  18.2740113  67.8864913  63.9138903  24.6080113  55.3244913  72.5208903
  24.7860113  54.5154913  72.2458903  24.4650113  55.7654913  71.7818903
  24.6130113  55.2704913  72.3708903  25.2020113  60.2504913  61.2938903
  25.4890113  60.0184913  60.5038903  25.9340113  60.3294913  61.7628903
  25.3520113  60.2274913  61.2468903  25.9240113  60.5894913  56.4148903
  26.2050113  61.3774913  56.6638903  25.1480113  60.7544913  56.0518903
  25.8510113  60.7304913  56.3978903  32.7540113  56.9314913  67.0418903
  33.5110113  57.0034913  66.6138903  32.8170113  56.1584913  67.4408903
  32.8750113  56.8284913  67.0368903  15.3070113  58.2294913  70.9388903
  15.3030113  58.8164913  71.5848903  15.9010113  58.5414913  70.3818903
  15.3940113  58.3624913  70.9518903  27.6450113  68.5634913  71.4808903
  27.6110113  68.9454913  72.2648903  28.4990113  68.5214913  71.3098903
  27.7660113  68.6134913  71.5718903  24.7830113  68.7604913  56.2308903
  24.6020113  69.3054913  56.8878903  25.5490113  69.0504913  55.9298903
  24.8690113  68.8844913  56.2838903  28.2900113  56.6564913  57.2848903
  28.8300113  55.9744913  57.3608903  28.3520113  57.0544913  58.0588903
  28.3790113  56.6144913  57.4108903  16.2440113  57.8244913  59.8538903
  16.1300113  56.9604913  59.8848903  15.7690113  58.1184913  60.5238903
  16.1570113  57.7404913  59.9568903  25.5480113  59.0324913  58.5988903
  25.0400113  58.3704913  58.3448903  25.6000113  59.5364913  57.8888903
  25.4810113  59.0094913  58.4568903  25.5480113  55.9734913  58.4898903
  25.0930113  55.5714913  57.8638903  26.3210113  56.1284913  58.1148903
  25.5950113  55.9374913  58.3418903  24.1460113  58.3404913  63.0118903
  24.2200113  58.9084913  62.3538903  24.2670113  58.8324913  63.7218903
  24.1740113  58.4974913  63.0198903  29.3710113  68.1754913  61.4238903
  30.0720113  67.6934913  61.6128903  28.7110113  67.6064913  61.4688903
  29.3770113  68.0204913  61.4578903  19.7470113  69.0854913  70.6358903
  20.5880113  69.1484913  70.4138903  19.7100113  69.4824913  71.4118903
  19.8660113  69.1534913  70.7178903  18.7540113  54.1634913  61.3598903
  19.2900113  54.8514913  61.3498903  18.7570113  53.8894913  60.5318903
  18.8330113  54.2244913  61.2358903  21.7100113  64.5964913  65.3848903
  21.8820113  64.3864913  66.2138903  21.0550113  64.0624913  65.1688903
  21.6390113  64.4864913  65.4758903  27.9380113  58.5104913  68.8998903
  27.8430113  58.8294913  69.7058903  27.3450113  57.8714913  68.8618903
  27.8360113  58.4624913  69.0138903  22.4600113  64.5344913  67.9748903
  22.5130113  65.3814913  68.1768903  22.1750113  64.1644913  68.7118903
  22.4260113  64.6044913  68.1128903  28.6370113  65.2294913  67.1048903
  28.1230113  64.8174913  67.6758903  28.5110113  66.0734913  67.2858903
  28.5430113  65.2934913  67.2158903  29.1940113  54.4544913  61.7358903
  29.2430113  54.1364913  62.5468903  29.5170113  53.8104913  61.2428903
  29.2490113  54.3124913  61.7828903  15.2810113  68.9054913  74.1858903
  16.0370113  69.2544913  74.4438903  15.4580113  68.0524913  74.1288903
  15.4190113  68.8304913  74.2158903  31.6580113  58.6904913  70.0438903
  32.4300113  58.4654913  70.3808903  31.1830113  58.9074913  70.7438903
  31.7020113  58.6894913  70.1968903  19.2020113  57.9734913  63.0138903
  19.4740113  57.5434913  62.3058903  19.0260113  57.3374913  63.5848903
  19.2160113  57.8164913  62.9938903  31.8900113  65.6684913  57.2318903
  32.0090113  65.3814913  58.0468903  32.6970113  65.6894913  56.9018903
  32.0260113  65.6294913  57.3038903  19.0260113  65.4004913  62.5628903
  19.8770113  65.3204913  62.3898903  18.6690113  64.7184913  62.1508903
  19.0990113  65.2874913  62.4758903  17.3430113  59.0754913  66.0958903
  18.1860113  59.2954913  66.0528903  16.9540113  59.6484913  65.5648903
  17.4100113  59.1924913  66.0108903  29.7850113  62.2054913  56.8168903
  29.5650113  62.9364913  56.3948903  29.3370113  62.2564913  57.5638903
  29.6860113  62.3204913  56.8648903  21.3940113  65.4074913  60.7978903
  22.1070113  65.9024913  60.8878903  21.6160113  64.8404913  60.1718903
  21.5320113  65.3964913  60.7188903  33.9720113  57.0664913  56.2698903
  33.3100113  56.4984913  56.2928903  33.7790113  57.5784913  55.5898903
  33.8460113  57.0584913  56.1728903  15.5500113  67.0504913  64.1178903
  14.8830113  67.5384913  64.3938903  16.2300113  67.5954913  64.1468903
  15.5520113  67.2024913  64.1628903  23.1970113  60.7604913  74.2138903
  22.7130113  61.3374913  74.6558903  23.1690113  61.0554913  73.3928903
  23.1210113  60.8894913  74.1578903  34.2950113  61.4444913  68.8258903
  34.5100113  60.6444913  68.5498903  33.4450113  61.5044913  68.6368903
  34.2010113  61.3354913  68.7568903  15.6160113  63.7344913  59.2208903
  15.4310113  62.8954913  59.3728903  16.2750113  63.6984913  58.6508903
  15.6860113  63.6054913  59.1588903  31.9740113  56.6244913  58.5488903
  32.7200113  56.2174913  58.7478903  32.2370113  57.3394913  58.1238903
  32.1230113  56.6704913  58.5158903  25.9170113  69.1104913  63.1248903
  25.3940113  69.7444913  62.8318903  26.2270113  68.7464913  62.3958903
  25.8850113  69.1504913  62.9738903  15.7880113  67.8984913  58.7958903
  16.3400113  68.4674913  59.1598903  15.5560113  67.3834913  59.4608903
  15.8350113  67.9064913  58.9478903  19.9920113  66.8984913  65.8848903
  20.4590113  67.1874913  66.5628903  20.5640113  66.4204913  65.4308903
  20.1460113  66.8704913  65.9178903  28.4280113  58.9124913  63.6218903
  28.7720113  59.0644913  64.4088903  27.9750113  58.1744913  63.7348903
  28.4120113  58.8254913  63.7548903  15.6180113  66.3474913  56.4238903
  16.3740113  65.9154913  56.4818903  15.6330113  66.8794913  57.1148903
  15.7320113  66.3624913  56.5348903  16.5580113  64.5684913  64.4288903
  16.9890113  64.4394913  63.6818903  16.3530113  65.4164913  64.4028903
  16.5910113  64.6744913  64.3148903  22.9040113  58.1324913  58.0788903
  22.9020113  58.0154913  57.2138903  22.7230113  58.9804913  58.1708903
  22.8770113  58.2404913  57.9648903  20.6420113  68.0844913  62.7108903
  20.7680113  68.9274913  62.8978903  21.3100113  67.6854913  63.1068903
  20.7600113  68.1504913  62.7968903  18.7720113  61.5674913  72.5728903
  18.2360113  61.0614913  73.0408903  18.7920113  61.1774913  71.7928903
  18.6950113  61.4344913  72.5268903  19.2570113  60.9644913  57.7128903
  19.1290113  60.5164913  58.4508903  18.6750113  60.6224913  57.1608903
  19.1520113  60.8474913  57.7408903  19.4240113  62.7944913  64.3118903
  18.6430113  62.7354913  63.9288903  19.4960113  62.0424913  64.7488903
  19.3190113  62.6754913  64.3198903  19.8540113  62.5314913  67.7798903
  19.8790113  61.8564913  67.2288903  19.2080113  63.0274913  67.4678903
  19.7630113  62.5044913  67.6528903  29.7490113  60.2444913  66.1758903
  29.0870113  60.5724913  66.6388903  29.9360113  60.8784913  65.6068903
  29.6790113  60.3864913  66.1598903  26.3940113  56.1504913  69.6048903
  26.5430113  55.3254913  69.3618903  26.7730113  56.2054913  70.3888903
  26.4720113  56.0364913  69.6848903  27.9420113  58.2134913  59.6868903
  28.4320113  58.9304913  59.6098903  27.1520113  58.4744913  59.4238903
  27.8980113  58.3574913  59.6368903  17.6530113  63.8864913  73.3388903
  17.6160113  64.3874913  72.6248903  17.9840113  63.1344913  73.0438903
  17.6960113  63.8484913  73.1898903  29.2560113  66.0914913  71.5968903
  29.7400113  66.8094913  71.6948903  29.6500113  65.6644913  70.9458903
  29.3860113  66.1344913  71.5148903  23.5520113  68.9364913  72.7738903
  23.9060113  68.7584913  73.5508903  23.1160113  68.2074913  72.5748903
  23.5400113  68.8024913  72.8598903  24.5240113  59.6834913  65.4118903
  25.0040113  60.3824913  65.6198903  24.8970113  59.0364913  65.8628903
  24.6500113  59.6914913  65.5088903  26.7130113  62.8524913  57.6858903
  26.7050113  63.5744913  57.1958903  26.0740113  62.9874913  58.2628903
  26.6180113  62.9794913  57.6988903  31.6850113  66.7224913  61.6668903
  32.0410113  66.3724913  62.3818903  31.6770113  66.0614913  61.0968903
  31.7370113  66.5724913  61.6878903  27.7430113  66.6394913  64.9108903
  26.9460113  66.8634913  65.1848903  28.0010113  66.0454913  65.4958903
  27.6630113  66.5844913  65.0378903  21.3060113  55.1944913  57.3468903
  21.4030113  55.0874913  58.2078903  20.5980113  55.7004913  57.2818903
  21.2160113  55.2534913  57.4648903  31.0030113  64.6374913  69.7568903
  31.0580113  64.7624913  68.8948903  31.7560113  64.9574913  70.0588903
  31.1220113  64.7024913  69.6738903  32.0350113  54.9354913  72.7438903
  31.3980113  54.5354913  72.3018903  32.0610113  54.5044913  73.5018903
  31.9450113  54.8134913  72.7898903  18.4280113  63.5014913  58.5898903
  18.7520113  62.7224913  58.3678903  19.0740113  63.8694913  59.0448903
  18.5710113  63.4404913  58.6238903  26.7340113  64.4434913  69.3568903
  26.5790113  65.0534913  69.9608903  27.2680113  63.8854913  69.7628903
  26.7900113  64.4514913  69.5058903  15.4250113  55.1624913  59.5578903
  15.5540113  54.4544913  59.0658903  15.0580113  54.8444913  60.2828903
  15.3900113  55.0104913  59.5928903  25.1180113  62.8434913  60.0148903
  25.1770113  63.4934913  60.5938903  24.9290113  62.1474913  60.5058903
  25.0990113  62.8364913  60.1728903  30.3440113  67.1724913  65.8838903
  29.8650113  67.4704913  65.2178903  29.9880113  66.3964913  66.0618903
  30.2210113  67.1014913  65.8118903  19.6140113  57.3604913  56.5268903
  19.1030113  57.4134913  55.8208903  20.3980113  57.6004913  56.2308903
  19.6540113  57.4034913  56.3788903  24.3410113  64.8904913  64.4458903
  23.4940113  64.6964913  64.5268903  24.6650113  64.7254913  65.2388903
  24.2630113  64.8374913  64.5748903  18.1890113  64.5834913  66.7618903
  18.9110113  65.0714913  66.7248903  17.9190113  64.5534913  65.9328903
  18.2560113  64.6514913  66.6338903  21.4190113  59.7544913  63.4968903
  22.2650113  59.5644913  63.5948903  21.0490113  58.9774913  63.3588903
  21.4890113  59.6114913  63.4908903  16.2400113  61.0924913  60.1518903
  16.7290113  60.8004913  60.8128903  16.3690113  60.4994913  59.5248903
  16.3310113  60.9614913  60.1568903  31.2750113  64.1144913  67.0028903
  31.2680113  63.3384913  67.4008903  30.4340113  64.3484913  66.9958903
  31.1500113  64.0344913  67.0608903  20.7650113  62.5264913  55.6378903
  20.1550113  62.1214913  56.1118903  20.3790113  62.6444913  54.8648903
  20.6180113  62.4834913  55.5938903  17.5840113  65.6354913  71.0398903
  17.1630113  65.1174913  70.4788903  17.2320113  66.4214913  70.8968903
  17.4700113  65.6754913  70.9358903  32.5310113  64.1854913  64.4398903
  32.2450113  64.5864913  65.1598903  33.3910113  64.1234913  64.5668903
  32.6160113  64.2354913  64.5648903  22.2200113  60.9874913  58.3478903
  22.4920113  61.8134913  58.4148903  21.3570113  61.0624913  58.2518903
  22.1330113  61.1204913  58.3428903  30.1930113  58.1094913  72.9798903
  29.6680113  58.5684913  73.5038903  29.8320113  57.3144913  72.9738903
  30.0620113  58.0594913  73.0558903  15.7000113  56.9574913  64.8838903
  15.7440113  57.3014913  64.0828903  16.4550113  57.1944913  65.2508903
  15.8180113  57.0434913  64.8198903  33.6620113  69.8184913  64.9688903
  33.9520113  70.0754913  64.1878903  34.3570113  69.9144913  65.4878903
  33.8080113  69.8704913  64.9298903  28.6850113  61.6784913  73.0558903
  28.7580113  61.7824913  73.9188903  28.0510113  62.2364913  72.8348903
  28.6020113  61.7764913  73.1508903  30.9530113  61.9974913  71.4208903
  31.2720113  62.7834913  71.6238903  30.5830113  61.7274913  72.1638903
  30.9460113  62.0734913  71.5608903  30.2670113  68.4214913  56.9508903
  30.6010113  67.6154913  56.9858903  29.5120113  68.3494913  57.3808903
  30.2050113  68.2914913  57.0198903  30.7490113  60.2554913  62.6098903
  30.0040113  59.9324913  62.9278903  30.7510113  61.0814913  62.8898903
  30.6390113  60.3294913  62.6978903  33.6510113  62.5394913  74.1558903
  33.5990113  62.1984913  73.3548903  34.3880113  63.0064913  74.1338903
  33.7520113  62.5584913  74.0338903  33.1890113  66.2154913  70.3618903
  33.8170113  65.6664913  70.1058903  33.1280113  66.7804913  69.6998903
  33.2730113  66.2184913  70.2258903  27.6410113  66.2964913  56.3538903
  28.3250113  65.7824913  56.1848903  27.2240113  66.3424913  55.5888903
  27.6800113  66.2274913  56.2158903  22.3230113  67.4464913  67.6578903
  22.0250113  68.0384913  68.2248903  22.3780113  67.8884913  66.9088903
  22.2870113  67.5994913  67.6308903  20.3020113  66.3964913  71.0558903
  19.4960113  66.1064913  71.2228903  20.2130113  67.2644913  71.0618903
  20.1700113  66.4814913  71.0808903  29.6610113  56.5854913  70.0708903
  30.4050113  57.0374913  70.0078903  29.0950113  57.0554913  69.6018903
  29.6880113  56.7224913  69.9928903  24.8390113  63.8694913  67.1488903
  25.3150113  64.2434913  67.7768903  24.0160113  64.0034913  67.4078903
  24.7880113  63.9444913  67.2798903  21.5490113  59.4724913  69.8898903
  21.7100113  58.7284913  70.3168903  21.5040113  59.2234913  69.0548903
  21.5660113  59.3254913  69.8298903  30.9460113  54.5654913  67.7408903
  30.6660113  55.3904913  67.6968903  31.6620113  54.6184913  68.2368903
  31.0110113  54.6954913  67.8078903  23.3010113  55.2804913  69.7698903
  24.0060113  55.6004913  69.3678903  23.5420113  54.4734913  69.9968903
  23.4400113  55.2084913  69.7438903  22.2860113  69.4904913  65.7658903
  21.6620113  70.0724913  65.5838903  22.5340113  69.2044913  64.9798903
  22.2300113  69.5344913  65.6228903  26.5950113  66.1244913  72.7548903
  27.3520113  66.4104913  72.4288903  26.0480113  66.1764913  72.0768903
  26.6260113  66.1744913  72.6058903  30.5040113  68.6744913  71.2588903
  30.8500113  68.9444913  72.0128903  30.7980113  69.2564913  70.6788903
  30.5990113  68.8004913  71.2848903  32.3670113  60.8204913  56.5978903
  32.7450113  61.4974913  56.1978903  31.5250113  61.0444913  56.6288903
  32.2980113  60.9534913  56.5428903  23.8800113  64.2664913  55.6808903
  23.0750113  64.0894913  55.3958903  23.8470113  65.1174913  55.8728903
  23.7560113  64.3654913  55.6678903  19.8100113  60.3334913  65.8308903
  20.2500113  60.2304913  65.0848903  20.3550113  60.0204913  66.4358903
  19.9550113  60.2724913  65.8098903  27.8260113  59.4354913  71.4228903
  27.1780113  59.9054913  71.7708903  28.3910113  59.3464913  72.0818903
  27.8140113  59.4914913  71.5718903  27.5140113  60.9724913  67.7208903
  27.8160113  61.3924913  68.4238903  27.5500113  60.1324913  67.9528903
  27.5640113  60.9104913  67.8588903  30.0620113  60.4194913  59.9728903
  30.2690113  60.2184913  60.7968903  30.8180113  60.6874913  59.6308903
  30.2040113  60.4294913  60.0438903  23.3570113  55.3184913  65.8778903
  22.5310113  55.1694913  66.1148903  23.3170113  55.3534913  65.0068903
  23.2290113  55.3014913  65.7838903  31.0840113  56.5024913  61.4468903
  30.3700113  56.0314913  61.6178903  30.9220113  56.8434913  60.6608903
  30.9550113  56.4834913  61.3558903  31.5270113  64.4464913  59.8268903
  32.0030113  63.7174913  59.7788903  30.7060113  64.1604913  59.7508903
  31.4760113  64.2964913  59.8078903  24.9980113  66.3584913  70.6658903
  24.2030113  66.2944913  71.0168903  25.0690113  67.2054913  70.4708903
  24.8910113  66.4734913  70.6888903  15.9220113  55.7164913  71.9128903
  15.7820113  56.5114913  71.5818903  15.1360113  55.4734913  72.2018903
  15.7850113  55.7984913  71.9068903  18.9860113  58.4604913  59.1378903
  19.1120113  58.1314913  58.3398903  18.1740113  58.2114913  59.3368903
  18.8850113  58.3754913  59.0498903  27.7430113  65.6134913  62.1818903
  27.8190113  65.9544913  62.9808903  27.9120113  64.7664913  62.3028903
  27.7790113  65.5384913  62.3178903  25.2650113  64.8874913  61.7468903
  24.9670113  64.5724913  62.5038903  25.9600113  65.3604913  61.9818903
  25.3240113  64.9104913  61.8938903  25.4870113  69.0054913  69.7738903
  26.1740113  68.8914913  70.2988903  25.6210113  69.7964913  69.4298903
  25.6080113  69.1054913  69.8008903  33.6630113  61.6144913  71.5848903
  32.8080113  61.4924913  71.7108903  33.8160113  61.2194913  70.8218903
  33.5590113  61.5374913  71.4908903  28.1760113  62.2794913  70.1608903
  27.9210113  61.5604913  70.5828903  28.9970113  62.3954913  70.4308903
  28.2600113  62.1904913  70.2628903  26.1100113  63.4694913  73.3478903
  26.4330113  64.1554913  72.9158903  25.4060113  63.7924913  73.7498903
  26.0530113  63.6184913  73.3428903  25.8950113  66.9334913  67.2068903
  25.2010113  67.3354913  67.5498903  26.5720113  67.3664913  67.5458903
  25.8920113  67.0564913  67.3078903  31.2720113  69.5264913  73.7868903
  32.0480113  69.1364913  73.8698903  30.8030113  69.1904913  74.4418903
  31.3170113  69.4194913  73.8958903  18.9630113  60.4714913  69.5538903
  19.3380113  61.0904913  69.0668903  19.6370113  59.9974913  69.8388903
  19.1180113  60.4934913  69.5238903  16.7380113  58.9194913  68.8288903
  16.8150113  58.7504913  67.9758903  17.4840113  59.3254913  69.0258903
  16.8590113  58.9544913  68.7318903  32.2970113  61.5594913  59.2688903
  32.4000113  61.5014913  58.4048903  33.0380113  61.2274913  59.5868903
  32.4220113  61.5024913  59.1878903  19.2920113  56.3294913  71.2398903
  19.2110113  55.4854913  71.4458903  18.9780113  56.3734913  70.4268903
  19.2340113  56.2114913  71.1498903  26.2170113  68.5244913  60.3758903
  26.0120113  69.3574913  60.2168903  25.4420113  68.1424913  60.4978903
  26.0720113  68.5914913  60.3708903  31.3990113  61.7054913  68.6248903
  31.3970113  60.8424913  68.7488903  31.4660113  62.0294913  69.4318903
  31.4090113  61.6254913  68.7618903  16.1350113  64.1454913  69.0528903
  16.4550113  64.3644913  68.2718903  16.0350113  63.2804913  68.9978903
  16.1670113  64.0504913  68.9298903  17.5910113  60.0814913  55.6708903
  16.9190113  60.0954913  56.2268903  17.6860113  59.2334913  55.4868903
  17.5060113  59.9584913  55.7258903  27.2780113  56.5054913  72.4068903
  27.3700113  57.2174913  72.9008903  26.6410113  56.0604913  72.8038903
  27.1970113  56.5444913  72.5388903  26.2720113  56.6954913  63.2608903
  25.5720113  57.2134913  63.2048903  26.3100113  56.3154913  62.4768903
  26.1740113  56.7164913  63.1368903  21.5790113  68.7864913  56.7848903
  22.0200113  68.8664913  57.5328903  20.7740113  68.5704913  57.0428903
  21.5250113  68.7664913  56.9338903  29.8700113  57.2114913  66.0608903
  30.7250113  57.3104913  66.2058903  29.5010113  57.7644913  66.6258903
  29.9420113  57.3084913  66.1658903  20.8980113  63.4374913  70.4378903
  20.5020113  64.2114913  70.5128903  20.4920113  63.0644913  69.7618903
  20.7800113  63.4964913  70.3488903  30.1740113  62.4914913  64.5518903
  30.8400113  63.0324913  64.7118903  29.8290113  62.8024913  63.8128903
  30.2210113  62.6174913  64.4668903  18.9080113  67.8564913  57.3858903
  18.6640113  67.5494913  58.1658903  18.8750113  67.1534913  56.8698903
  18.8670113  67.7074913  57.4248903  21.7270113  66.1014913  56.1288903
  20.9090113  65.8334913  56.2688903  21.6990113  66.9534913  56.3138903
  21.6020113  66.1884913  56.1768903  21.3270113  56.4144913  67.8878903
  20.4630113  56.4984913  67.9678903  21.5470113  55.9004913  68.5568903
  21.2320113  56.3514913  67.9988903  33.3450113  55.0494913  69.2168903
  33.2930113  55.0054913  70.0868903  34.0320113  54.5464913  69.0268903
  33.4390113  54.9694913  69.3168903  25.4300113  57.1624913  66.2618903
  24.6930113  56.7084913  66.3748903  26.0010113  56.7604913  66.7848903
  25.4050113  57.0354913  66.3558903  28.1620113  68.0104913  68.0498903
  28.3680113  68.3114913  68.8418903  28.1010113  68.7324913  67.5648903
  28.1830113  68.1614913  68.0948903  22.9330113  61.4914913  71.4658903
  22.6110113  60.9154913  70.8958903  22.5740113  62.2464913  71.2198903
  22.8330113  61.5174913  71.3458903  23.7290113  54.7434913  56.0928903
  23.8070113  54.9904913  55.2598903  22.9860113  55.1204913  56.3508903
  23.6310113  54.8354913  56.0078903  32.9740113  66.6494913  67.5078903
  32.9420113  65.7874913  67.3728903  32.2810113  66.9514913  67.0738903
  32.8670113  66.5664913  67.4238903  31.0790113  69.9094913  66.3048903
  31.6060113  69.8264913  65.6138903  30.6880113  69.1314913  66.3588903
  31.0990113  69.7824913  66.2108903  18.5470113  56.4974913  68.5358903
  18.2040113  55.7304913  68.3018903  17.8520113  57.0214913  68.5998903
  18.3940113  56.4614913  68.5108903  27.5930113  55.3534913  65.5128903
  28.2630113  55.8974913  65.6398903  27.0900113  55.7774913  64.9398903
  27.6180113  55.4964913  65.4468903  26.9520113  61.1614913  63.0058903
  27.5030113  60.5544913  63.3058903  26.5270113  61.4244913  63.7208903
  26.9710113  61.1104913  63.1548903  17.2000113  59.8114913  62.4918903
  16.8320113  60.1134913  63.2228903  17.7340113  59.1824913  62.7758903
  17.2240113  59.7634913  62.6418903  16.8880113  68.2194913  70.0028903
  16.3140113  68.6354913  70.5118903  17.6210113  68.6844913  70.0978903
  16.9120113  68.3494913  70.0918903  28.9220113  62.9924913  59.5678903
  28.9900113  62.1424913  59.7488903  28.0990113  63.0784913  59.2898903
  28.8100113  62.8794913  59.5538903  22.8410113  63.8834913  58.5058903
  22.9410113  64.0224913  57.6508903  23.6590113  63.8234913  58.8018903
  22.9760113  63.8944913  58.4228903  32.1960113  64.3654913  72.7188903
  32.8300113  64.1954913  73.2928903  32.6130113  64.7684913  72.0668903
  32.3510113  64.4004913  72.7078903  28.0760113  68.2124913  58.3078903
  27.8250113  68.0844913  59.1338903  27.7590113  67.5174913  57.8868903
  27.9920113  68.0914913  58.3678903  32.8210113  58.9294913  73.4568903
  32.6250113  59.5734913  74.0118903  32.0990113  58.4394913  73.4488903
  32.6860113  58.9524913  73.5378903  32.7200113  59.8704913  66.4278903
  31.8870113  60.1204913  66.3558903  32.6640113  59.0304913  66.6568903
  32.5890113  59.7834913  66.4508903  21.9800113  56.8584913  71.6218903
  22.2140113  56.2824913  71.0088903  21.1380113  56.6774913  71.7628903
  21.8900113  56.7464913  71.5518903  29.6070113  64.4764913  74.0738903
  30.4780113  64.4404913  74.0378903  29.3880113  64.8964913  73.3418903
  29.7040113  64.5324913  73.9608903  24.9620113  66.4204913  57.7378903
  25.6790113  66.0734913  57.3818903  24.9280113  67.2204913  57.3898903
  25.0630113  66.4874913  57.6338903  26.3710113  55.0614913  41.9766493
  26.1260113  55.5494913  41.2966493  27.2340113  54.9884913  41.8766493
  26.4620113  55.1224913  41.8616493  26.1800113  61.9774913  46.6476493
  25.6560113  62.5734913  47.0106493  26.5770113  61.6094913  47.3316493
  26.1610113  62.0114913  46.8026493  16.0490113  66.1174913  42.1036493
  15.6080113  66.2354913  42.8466493  15.7660113  65.3424913  41.8186493
  15.9420113  66.0204913  42.1716493  32.3240113  69.4184913  39.6186493
  33.0250113  68.8994913  39.6146493  31.7370113  68.9734913  39.1496493
  32.3410113  69.2754913  39.5486493  15.7920113  59.9094913  38.6106493
  15.0140113  60.0714913  38.2506493  15.8310113  59.0384913  38.6326493
  15.6830113  59.8044913  38.5606493  18.9310113  65.1724913  37.2826493
  18.5390113  64.8014913  36.5966493  18.8510113  64.5744913  37.9116493
  18.8610113  65.0294913  37.2736493  28.8510113  63.0444913  43.3236493
  28.9310113  63.0484913  42.4546493  28.2670113  62.4124913  43.4726493
  28.7760113  62.9514913  43.2176493  18.5580113  66.8134913  41.1826493
  19.1660113  66.6434913  41.7856493  17.8070113  66.6734913  41.6036493
  18.5370113  66.7674913  41.3336493  22.8400113  56.1484913  41.1316493
  22.7700113  56.8254913  40.5856493  23.5810113  55.7604913  40.8826493
  22.9390113  56.1914913  41.0136493  17.4490113  69.9044913  37.2596493
  17.9160113  69.9884913  36.5276493  17.9040113  69.3264913  37.7286493
  17.5850113  69.8314913  37.2206493  15.9890113  68.8524913  48.3586493
  16.1180113  68.5724913  49.1746493  15.3790113  68.3114913  48.0496493
  15.9180113  68.7314913  48.4336493  22.5630113  66.3774913  53.4256493
  22.3270113  66.3744913  54.2656493  21.8150113  66.2294913  53.0016493
  22.4170113  66.3544913  53.4866493  17.4350113  63.3734913  42.5606493
  16.9730113  62.9814913  41.9336493  18.1350113  62.8604913  42.6526493
  17.4700113  63.2404913  42.4816493  21.9430113  58.9834913  47.9076493
  22.6210113  59.0014913  47.3586493  21.8980113  58.1474913  48.1526493
  22.0360113  58.8624913  47.8626493  19.4360113  61.4734913  42.5836493
  20.2530113  61.2864913  42.8266493  18.9590113  60.8594913  42.9796493
  19.4860113  61.3554913  42.6786493  23.6400113  67.4544913  45.1936493
  23.9880113  66.6554913  45.2236493  24.3050113  67.9584913  44.9386493
  23.7900113  67.4104913  45.1606493  23.6970113  66.9034913  41.4046493
  24.0280113  66.2594913  41.8906493  23.9370113  66.6924913  40.5936493
  23.7810113  66.7774913  41.3566493  25.6650113  61.0344913  52.7436493
  24.8170113  60.9354913  52.5656493  25.6940113  61.7794913  53.1976493
  25.5440113  61.1304913  52.7846493  20.0330113  56.5674913  41.8496493
  19.7370113  57.0684913  41.1996493  20.9000113  56.6454913  41.7926493
  20.1170113  56.6534913  41.7456493  30.2230113  53.9944913  51.8576493
  30.0650113  54.7634913  51.4756493  29.4510113  53.7744913  52.2016493
  30.0850113  54.0754913  51.8526493  27.6850113  58.6354913  36.3716493
  27.2350113  59.3164913  36.6786493  27.7990113  58.1314913  37.0746493
  27.6360113  58.6614913  36.5206493  15.8910113  61.1344913  45.5736493
  15.6350113  61.9654913  45.4986493  15.2270113  60.7514913  45.9906493
  15.7550113  61.2004913  45.6246493  21.6410113  68.6884913  40.9536493
  21.0620113  68.4134913  41.5456493  22.2650113  68.0794913  40.9786493
  21.6480113  68.5584913  41.0446493  18.9200113  55.9514913  46.0646493
  18.3990113  55.3234913  45.7566493  19.5110113  55.5144913  46.5356493
  18.9310113  55.7934913  46.0886493  22.2260113  58.0844913  55.3626493
  22.3430113  57.6304913  54.6266493  22.5140113  58.8824913  55.1596493
  22.2860113  58.1354913  55.2236493  17.9590113  57.6814913  54.3466493
  17.1810113  57.2914913  54.2746493  18.4500113  57.2694913  53.7556493
  17.9160113  57.5624913  54.2486493  18.1640113  68.0014913  44.9046493
  18.5870113  67.6454913  44.2306493  18.4880113  67.5794913  45.5966493
  18.2740113  67.8864913  44.9076493  24.6080113  55.3244913  53.5146493
  24.7860113  54.5154913  53.2396493  24.4650113  55.7654913  52.7756493
  24.6130113  55.2704913  53.3646493  25.2020113  60.2504913  42.2876493
  25.4890113  60.0184913  41.4976493  25.9340113  60.3294913  42.7566493
  25.3520113  60.2274913  42.2406493  25.9240113  60.5894913  37.4086493
  26.2050113  61.3774913  37.6576493  25.1480113  60.7544913  37.0456493
  25.8510113  60.7304913  37.3916493  32.7540113  56.9314913  48.0356493
  33.5110113  57.0034913  47.6076493  32.8170113  56.1584913  48.4346493
  32.8750113  56.8284913  48.0306493  15.3070113  58.2294913  51.9326493
  15.3030113  58.8164913  52.5786493  15.9010113  58.5414913  51.3756493
  15.3940113  58.3624913  51.9456493  27.6450113  68.5634913  52.4746493
  27.6110113  68.9454913  53.2586493  28.4990113  68.5214913  52.3036493
  27.7660113  68.6134913  52.5656493  24.7830113  68.7604913  37.2246493
  24.6020113  69.3054913  37.8816493  25.5490113  69.0504913  36.9236493
  24.8690113  68.8844913  37.2776493  16.2440113  57.8244913  40.8476493
  16.1300113  56.9604913  40.8786493  15.7690113  58.1184913  41.5176493
  16.1570113  57.7404913  40.9506493  25.5480113  59.0324913  39.5926493
  25.0400113  58.3704913  39.3386493  25.6000113  59.5364913  38.8826493
  25.4810113  59.0094913  39.4506493  25.5480113  55.9734913  39.4836493
  25.0930113  55.5714913  38.8576493  26.3210113  56.1284913  39.1086493
  25.5950113  55.9374913  39.3356493  24.1460113  58.3404913  44.0056493
  24.2200113  58.9084913  43.3476493  24.2670113  58.8324913  44.7156493
  24.1740113  58.4974913  44.0136493  29.3710113  68.1754913  42.4176493
  30.0720113  67.6934913  42.6066493  28.7110113  67.6064913  42.4626493
  29.3770113  68.0204913  42.4516493  19.7470113  69.0854913  51.6296493
  20.5880113  69.1484913  51.4076493  19.7100113  69.4824913  52.4056493
  19.8660113  69.1534913  51.7116493  18.7540113  54.1634913  42.3536493
  19.2900113  54.8514913  42.3436493  18.7570113  53.8894913  41.5256493
  18.8330113  54.2244913  42.2296493  21.7100113  64.5964913  46.3786493
  21.8820113  64.3864913  47.2076493  21.0550113  64.0624913  46.1626493
  21.6390113  64.4864913  46.4696493  27.9380113  58.5104913  49.8936493
  27.8430113  58.8294913  50.6996493  27.3450113  57.8714913  49.8556493
  27.8360113  58.4624913  50.0076493  22.4600113  64.5344913  48.9686493
  22.5130113  65.3814913  49.1706493  22.1750113  64.1644913  49.7056493
  22.4260113  64.6044913  49.1066493  28.6370113  65.2294913  48.0986493
  28.1230113  64.8174913  48.6696493  28.5110113  66.0734913  48.2796493
  28.5430113  65.2934913  48.2096493  29.1940113  54.4544913  42.7296493
  29.2430113  54.1364913  43.5406493  29.5170113  53.8104913  42.2366493
  29.2490113  54.3124913  42.7766493  15.2810113  68.9054913  55.1796493
  16.0370113  69.2544913  55.4376493  15.4580113  68.0524913  55.1226493
  15.4190113  68.8304913  55.2096493  31.6580113  58.6904913  51.0376493
  32.4300113  58.4654913  51.3746493  31.1830113  58.9074913  51.7376493
  31.7020113  58.6894913  51.1906493  19.2020113  57.9734913  44.0076493
  19.4740113  57.5434913  43.2996493  19.0260113  57.3374913  44.5786493
  19.2160113  57.8164913  43.9876493  31.8900113  65.6684913  38.2256493
  32.0090113  65.3814913  39.0406493  32.6970113  65.6894913  37.8956493
  32.0260113  65.6294913  38.2976493  19.0260113  65.4004913  43.5566493
  19.8770113  65.3204913  43.3836493  18.6690113  64.7184913  43.1446493
  19.0990113  65.2874913  43.4696493  17.3430113  59.0754913  47.0896493
  18.1860113  59.2954913  47.0466493  16.9540113  59.6484913  46.5586493
  17.4100113  59.1924913  47.0046493  29.7850113  62.2054913  37.8106493
  29.5650113  62.9364913  37.3886493  29.3370113  62.2564913  38.5576493
  29.6860113  62.3204913  37.8586493  21.3940113  65.4074913  41.7916493
  22.1070113  65.9024913  41.8816493  21.6160113  64.8404913  41.1656493
  21.5320113  65.3964913  41.7126493  33.9720113  57.0664913  37.2636493
  33.3100113  56.4984913  37.2866493  33.7790113  57.5784913  36.5836493
  33.8460113  57.0584913  37.1666493  15.5500113  67.0504913  45.1116493
  14.8830113  67.5384913  45.3876493  16.2300113  67.5954913  45.1406493
  15.5520113  67.2024913  45.1566493  23.1970113  60.7604913  55.2076493
  22.7130113  61.3374913  55.6496493  23.1690113  61.0554913  54.3866493
  23.1210113  60.8894913  55.1516493  34.2950113  61.4444913  49.8196493
  34.5100113  60.6444913  49.5436493  33.4450113  61.5044913  49.6306493
  34.2010113  61.3354913  49.7506493  15.6160113  63.7344913  40.2146493
  15.4310113  62.8954913  40.3666493  16.2750113  63.6984913  39.6446493
  15.6860113  63.6054913  40.1526493  31.9740113  56.6244913  39.5426493
  32.7200113  56.2174913  39.7416493  32.2370113  57.3394913  39.1176493
  32.1230113  56.6704913  39.5096493  25.9170113  69.1104913  44.1186493
  25.3940113  69.7444913  43.8256493  26.2270113  68.7464913  43.3896493
  25.8850113  69.1504913  43.9676493  15.7880113  67.8984913  39.7896493
  16.3400113  68.4674913  40.1536493  15.5560113  67.3834913  40.4546493
  15.8350113  67.9064913  39.9416493  19.9920113  66.8984913  46.8786493
  20.4590113  67.1874913  47.5566493  20.5640113  66.4204913  46.4246493
  20.1460113  66.8704913  46.9116493  28.4280113  58.9124913  44.6156493
  28.7720113  59.0644913  45.4026493  27.9750113  58.1744913  44.7286493
  28.4120113  58.8254913  44.7486493  15.6180113  66.3474913  37.4176493
  16.3740113  65.9154913  37.4756493  15.6330113  66.8794913  38.1086493
  15.7320113  66.3624913  37.5286493  16.5580113  64.5684913  45.4226493
  16.9890113  64.4394913  44.6756493  16.3530113  65.4164913  45.3966493
  16.5910113  64.6744913  45.3086493  22.9040113  58.1324913  39.0726493
  22.9020113  58.0154913  38.2076493  22.7230113  58.9804913  39.1646493
  22.8770113  58.2404913  38.9586493  20.6420113  68.0844913  43.7046493
  20.7680113  68.9274913  43.8916493  21.3100113  67.6854913  44.1006493
  20.7600113  68.1504913  43.7906493  18.7720113  61.5674913  53.5666493
  18.2360113  61.0614913  54.0346493  18.7920113  61.1774913  52.7866493
  18.6950113  61.4344913  53.5206493  19.2570113  60.9644913  38.7066493
  19.1290113  60.5164913  39.4446493  18.6750113  60.6224913  38.1546493
  19.1520113  60.8474913  38.7346493  19.4240113  62.7944913  45.3056493
  18.6430113  62.7354913  44.9226493  19.4960113  62.0424913  45.7426493
  19.3190113  62.6754913  45.3136493  19.8540113  62.5314913  48.7736493
  19.8790113  61.8564913  48.2226493  19.2080113  63.0274913  48.4616493
  19.7630113  62.5044913  48.6466493  29.7490113  60.2444913  47.1696493
  29.0870113  60.5724913  47.6326493  29.9360113  60.8784913  46.6006493
  29.6790113  60.3864913  47.1536493  26.3940113  56.1504913  50.5986493
  26.5430113  55.3254913  50.3556493  26.7730113  56.2054913  51.3826493
  26.4720113  56.0364913  50.6786493  27.9420113  58.2134913  40.6806493
  28.4320113  58.9304913  40.6036493  27.1520113  58.4744913  40.4176493
  27.8980113  58.3574913  40.6306493  17.6530113  63.8864913  54.3326493
  17.6160113  64.3874913  53.6186493  17.9840113  63.1344913  54.0376493
  17.6960113  63.8484913  54.1836493  29.2560113  66.0914913  52.5906493
  29.7400113  66.8094913  52.6886493  29.6500113  65.6644913  51.9396493
  29.3860113  66.1344913  52.5086493  23.5520113  68.9364913  53.7676493
  23.9060113  68.7584913  54.5446493  23.1160113  68.2074913  53.5686493
  23.5400113  68.8024913  53.8536493  24.5240113  59.6834913  46.4056493
  25.0040113  60.3824913  46.6136493  24.8970113  59.0364913  46.8566493
  24.6500113  59.6914913  46.5026493  26.7130113  62.8524913  38.6796493
  26.7050113  63.5744913  38.1896493  26.0740113  62.9874913  39.2566493
  26.6180113  62.9794913  38.6926493  31.6850113  66.7224913  42.6606493
  32.0410113  66.3724913  43.3756493  31.6770113  66.0614913  42.0906493
  31.7370113  66.5724913  42.6816493  27.7430113  66.6394913  45.9046493
  26.9460113  66.8634913  46.1786493  28.0010113  66.0454913  46.4896493
  27.6630113  66.5844913  46.0316493  21.3060113  55.1944913  38.3406493
  21.4030113  55.0874913  39.2016493  20.5980113  55.7004913  38.2756493
  21.2160113  55.2534913  38.4586493  31.0030113  64.6374913  50.7506493
  31.0580113  64.7624913  49.8886493  31.7560113  64.9574913  51.0526493
  31.1220113  64.7024913  50.6676493  32.0350113  54.9354913  53.7376493
  31.3980113  54.5354913  53.2956493  32.0610113  54.5044913  54.4956493
  31.9450113  54.8134913  53.7836493  18.4280113  63.5014913  39.5836493
  18.7520113  62.7224913  39.3616493  19.0740113  63.8694913  40.0386493
  18.5710113  63.4404913  39.6176493  26.7340113  64.4434913  50.3506493
  26.5790113  65.0534913  50.9546493  27.2680113  63.8854913  50.7566493
  26.7900113  64.4514913  50.4996493  15.4250113  55.1624913  40.5516493
  15.5540113  54.4544913  40.0596493  15.0580113  54.8444913  41.2766493
  15.3900113  55.0104913  40.5866493  25.1180113  62.8434913  41.0086493
  25.1770113  63.4934913  41.5876493  24.9290113  62.1474913  41.4996493
  25.0990113  62.8364913  41.1666493  30.3440113  67.1724913  46.8776493
  29.8650113  67.4704913  46.2116493  29.9880113  66.3964913  47.0556493
  30.2210113  67.1014913  46.8056493  19.6140113  57.3604913  37.5206493
  19.1030113  57.4134913  36.8146493  20.3980113  57.6004913  37.2246493
  19.6540113  57.4034913  37.3726493  24.3410113  64.8904913  45.4396493
  23.4940113  64.6964913  45.5206493  24.6650113  64.7254913  46.2326493
  24.2630113  64.8374913  45.5686493  18.1890113  64.5834913  47.7556493
  18.9110113  65.0714913  47.7186493  17.9190113  64.5534913  46.9266493
  18.2560113  64.6514913  47.6276493  21.4190113  59.7544913  44.4906493
  22.2650113  59.5644913  44.5886493  21.0490113  58.9774913  44.3526493
  21.4890113  59.6114913  44.4846493  16.2400113  61.0924913  41.1456493
  16.7290113  60.8004913  41.8066493  16.3690113  60.4994913  40.5186493
  16.3310113  60.9614913  41.1506493  31.2750113  64.1144913  47.9966493
  31.2680113  63.3384913  48.3946493  30.4340113  64.3484913  47.9896493
  31.1500113  64.0344913  48.0546493  20.7650113  62.5264913  36.6316493
  20.1550113  62.1214913  37.1056493  20.3790113  62.6444913  35.8586493
  20.6180113  62.4834913  36.5876493  17.5840113  65.6354913  52.0336493
  17.1630113  65.1174913  51.4726493  17.2320113  66.4214913  51.8906493
  17.4700113  65.6754913  51.9296493  32.5310113  64.1854913  45.4336493
  32.2450113  64.5864913  46.1536493  33.3910113  64.1234913  45.5606493
  32.6160113  64.2354913  45.5586493  22.2200113  60.9874913  39.3416493
  22.4920113  61.8134913  39.4086493  21.3570113  61.0624913  39.2456493
  22.1330113  61.1204913  39.3366493  30.1930113  58.1094913  53.9736493
  29.6680113  58.5684913  54.4976493  29.8320113  57.3144913  53.9676493
  30.0620113  58.0594913  54.0496493  15.7000113  56.9574913  45.8776493
  15.7440113  57.3014913  45.0766493  16.4550113  57.1944913  46.2446493
  15.8180113  57.0434913  45.8136493  33.6620113  69.8184913  45.9626493
  33.9520113  70.0754913  45.1816493  34.3570113  69.9144913  46.4816493
  33.8080113  69.8704913  45.9236493  28.6850113  61.6784913  54.0496493
  28.7580113  61.7824913  54.9126493  28.0510113  62.2364913  53.8286493
  28.6020113  61.7764913  54.1446493  30.9530113  61.9974913  52.4146493
  31.2720113  62.7834913  52.6176493  30.5830113  61.7274913  53.1576493
  30.9460113  62.0734913  52.5546493  30.2670113  68.4214913  37.9446493
  30.6010113  67.6154913  37.9796493  29.5120113  68.3494913  38.3746493
  30.2050113  68.2914913  38.0136493  30.7490113  60.2554913  43.6036493
  30.0040113  59.9324913  43.9216493  30.7510113  61.0814913  43.8836493
  30.6390113  60.3294913  43.6916493  33.6510113  62.5394913  55.1496493
  33.5990113  62.1984913  54.3486493  34.3880113  63.0064913  55.1276493
  33.7520113  62.5584913  55.0276493  33.1890113  66.2154913  51.3556493
  33.8170113  65.6664913  51.0996493  33.1280113  66.7804913  50.6936493
  33.2730113  66.2184913  51.2196493  27.6410113  66.2964913  37.3476493
  28.3250113  65.7824913  37.1786493  27.2240113  66.3424913  36.5826493
  27.6800113  66.2274913  37.2096493  22.3230113  67.4464913  48.6516493
  22.0250113  68.0384913  49.2186493  22.3780113  67.8884913  47.9026493
  22.2870113  67.5994913  48.6246493  20.3020113  66.3964913  52.0496493
  19.4960113  66.1064913  52.2166493  20.2130113  67.2644913  52.0556493
  20.1700113  66.4814913  52.0746493  29.6610113  56.5854913  51.0646493
  30.4050113  57.0374913  51.0016493  29.0950113  57.0554913  50.5956493
  29.6880113  56.7224913  50.9866493  24.8390113  63.8694913  48.1426493
  25.3150113  64.2434913  48.7706493  24.0160113  64.0034913  48.4016493
  24.7880113  63.9444913  48.2736493  21.5490113  59.4724913  50.8836493
  21.7100113  58.7284913  51.3106493  21.5040113  59.2234913  50.0486493
  21.5660113  59.3254913  50.8236493  30.9460113  54.5654913  48.7346493
  30.6660113  55.3904913  48.6906493  31.6620113  54.6184913  49.2306493
  31.0110113  54.6954913  48.8016493  23.3010113  55.2804913  50.7636493
  24.0060113  55.6004913  50.3616493  23.5420113  54.4734913  50.9906493
  23.4400113  55.2084913  50.7376493  22.2860113  69.4904913  46.7596493
  21.6620113  70.0724913  46.5776493  22.5340113  69.2044913  45.9736493
  22.2300113  69.5344913  46.6166493  26.5950113  66.1244913  53.7486493
  27.3520113  66.4104913  53.4226493  26.0480113  66.1764913  53.0706493
  26.6260113  66.1744913  53.5996493  30.5040113  68.6744913  52.2526493
  30.8500113  68.9444913  53.0066493  30.7980113  69.2564913  51.6726493
  30.5990113  68.8004913  52.2786493  32.3670113  60.8204913  37.5916493
  32.7450113  61.4974913  37.1916493  31.5250113  61.0444913  37.6226493
  32.2980113  60.9534913  37.5366493  23.8800113  64.2664913  36.6746493
  23.0750113  64.0894913  36.3896493  23.8470113  65.1174913  36.8666493
  23.7560113  64.3654913  36.6616493  19.8100113  60.3334913  46.8246493
  20.2500113  60.2304913  46.0786493  20.3550113  60.0204913  47.4296493
  19.9550113  60.2724913  46.8036493  27.8260113  59.4354913  52.4166493
  27.1780113  59.9054913  52.7646493  28.3910113  59.3464913  53.0756493
  27.8140113  59.4914913  52.5656493  27.5140113  60.9724913  48.7146493
  27.8160113  61.3924913  49.4176493  27.5500113  60.1324913  48.9466493
  27.5640113  60.9104913  48.8526493  30.0620113  60.4194913  40.9666493
  30.2690113  60.2184913  41.7906493  30.8180113  60.6874913  40.6246493
  30.2040113  60.4294913  41.0376493  23.3570113  55.3184913  46.8716493
  22.5310113  55.1694913  47.1086493  23.3170113  55.3534913  46.0006493
  23.2290113  55.3014913  46.7776493  31.0840113  56.5024913  42.4406493
  30.3700113  56.0314913  42.6116493  30.9220113  56.8434913  41.6546493
  30.9550113  56.4834913  42.3496493  31.5270113  64.4464913  40.8206493
  32.0030113  63.7174913  40.7726493  30.7060113  64.1604913  40.7446493
  31.4760113  64.2964913  40.8016493  24.9980113  66.3584913  51.6596493
  24.2030113  66.2944913  52.0106493  25.0690113  67.2054913  51.4646493
  24.8910113  66.4734913  51.6826493  15.9220113  55.7164913  52.9066493
  15.7820113  56.5114913  52.5756493  15.1360113  55.4734913  53.1956493
  15.7850113  55.7984913  52.9006493  18.9860113  58.4604913  40.1316493
  19.1120113  58.1314913  39.3336493  18.1740113  58.2114913  40.3306493
  18.8850113  58.3754913  40.0436493  27.7430113  65.6134913  43.1756493
  27.8190113  65.9544913  43.9746493  27.9120113  64.7664913  43.2966493
  27.7790113  65.5384913  43.3116493  25.2650113  64.8874913  42.7406493
  24.9670113  64.5724913  43.4976493  25.9600113  65.3604913  42.9756493
  25.3240113  64.9104913  42.8876493  25.4870113  69.0054913  50.7676493
  26.1740113  68.8914913  51.2926493  25.6210113  69.7964913  50.4236493
  25.6080113  69.1054913  50.7946493  33.6630113  61.6144913  52.5786493
  32.8080113  61.4924913  52.7046493  33.8160113  61.2194913  51.8156493
  33.5590113  61.5374913  52.4846493  28.1760113  62.2794913  51.1546493
  27.9210113  61.5604913  51.5766493  28.9970113  62.3954913  51.4246493
  28.2600113  62.1904913  51.2566493  26.1100113  63.4694913  54.3416493
  26.4330113  64.1554913  53.9096493  25.4060113  63.7924913  54.7436493
  26.0530113  63.6184913  54.3366493  25.8950113  66.9334913  48.2006493
  25.2010113  67.3354913  48.5436493  26.5720113  67.3664913  48.5396493
  25.8920113  67.0564913  48.3016493  31.2720113  69.5264913  54.7806493
  32.0480113  69.1364913  54.8636493  30.8030113  69.1904913  55.4356493
  31.3170113  69.4194913  54.8896493  18.9630113  60.4714913  50.5476493
  19.3380113  61.0904913  50.0606493  19.6370113  59.9974913  50.8326493
  19.1180113  60.4934913  50.5176493  16.7380113  58.9194913  49.8226493
  16.8150113  58.7504913  48.9696493  17.4840113  59.3254913  50.0196493
  16.8590113  58.9544913  49.7256493  32.2970113  61.5594913  40.2626493
  32.4000113  61.5014913  39.3986493  33.0380113  61.2274913  40.5806493
  32.4220113  61.5024913  40.1816493  19.2920113  56.3294913  52.2336493
  19.2110113  55.4854913  52.4396493  18.9780113  56.3734913  51.4206493
  19.2340113  56.2114913  52.1436493  26.2170113  68.5244913  41.3696493
  26.0120113  69.3574913  41.2106493  25.4420113  68.1424913  41.4916493
  26.0720113  68.5914913  41.3646493  31.3990113  61.7054913  49.6186493
  31.3970113  60.8424913  49.7426493  31.4660113  62.0294913  50.4256493
  31.4090113  61.6254913  49.7556493  16.1350113  64.1454913  50.0466493
  16.4550113  64.3644913  49.2656493  16.0350113  63.2804913  49.9916493
  16.1670113  64.0504913  49.9236493  17.5910113  60.0814913  36.6646493
  16.9190113  60.0954913  37.2206493  17.6860113  59.2334913  36.4806493
  17.5060113  59.9584913  36.7196493  27.2780113  56.5054913  53.4006493
  27.3700113  57.2174913  53.8946493  26.6410113  56.0604913  53.7976493
  27.1970113  56.5444913  53.5326493  26.2720113  56.6954913  44.2546493
  25.5720113  57.2134913  44.1986493  26.3100113  56.3154913  43.4706493
  26.1740113  56.7164913  44.1306493  21.5790113  68.7864913  37.7786493
  22.0200113  68.8664913  38.5266493  20.7740113  68.5704913  38.0366493
  21.5250113  68.7664913  37.9276493  29.8700113  57.2114913  47.0546493
  30.7250113  57.3104913  47.1996493  29.5010113  57.7644913  47.6196493
  29.9420113  57.3084913  47.1596493  20.8980113  63.4374913  51.4316493
  20.5020113  64.2114913  51.5066493  20.4920113  63.0644913  50.7556493
  20.7800113  63.4964913  51.3426493  30.1740113  62.4914913  45.5456493
  30.8400113  63.0324913  45.7056493  29.8290113  62.8024913  44.8066493
  30.2210113  62.6174913  45.4606493  18.9080113  67.8564913  38.3796493
  18.6640113  67.5494913  39.1596493  18.8750113  67.1534913  37.8636493
  18.8670113  67.7074913  38.4186493  21.7270113  66.1014913  37.1226493
  20.9090113  65.8334913  37.2626493  21.6990113  66.9534913  37.3076493
  21.6020113  66.1884913  37.1706493  21.3270113  56.4144913  48.8816493
  20.4630113  56.4984913  48.9616493  21.5470113  55.9004913  49.5506493
  21.2320113  56.3514913  48.9926493  33.3450113  55.0494913  50.2106493
  33.2930113  55.0054913  51.0806493  34.0320113  54.5464913  50.0206493
  33.4390113  54.9694913  50.3106493  25.4300113  57.1624913  47.2556493
  24.6930113  56.7084913  47.3686493  26.0010113  56.7604913  47.7786493
  25.4050113  57.0354913  47.3496493  28.1620113  68.0104913  49.0436493
  28.3680113  68.3114913  49.8356493  28.1010113  68.7324913  48.5586493
  28.1830113  68.1614913  49.0886493  22.9330113  61.4914913  52.4596493
  22.6110113  60.9154913  51.8896493  22.5740113  62.2464913  52.2136493
  22.8330113  61.5174913  52.3396493  23.7290113  54.7434913  37.0866493
  23.8070113  54.9904913  36.2536493  22.9860113  55.1204913  37.3446493
  23.6310113  54.8354913  37.0016493  32.9740113  66.6494913  48.5016493
  32.9420113  65.7874913  48.3666493  32.2810113  66.9514913  48.0676493
  32.8670113  66.5664913  48.4176493  31.0790113  69.9094913  47.2986493
  31.6060113  69.8264913  46.6076493  30.6880113  69.1314913  47.3526493
  31.0990113  69.7824913  47.2046493  18.5470113  56.4974913  49.5296493
  18.2040113  55.7304913  49.2956493  17.8520113  57.0214913  49.5936493
  18.3940113  56.4614913  49.5046493  27.5930113  55.3534913  46.5066493
  28.2630113  55.8974913  46.6336493  27.0900113  55.7774913  45.9336493
  27.6180113  55.4964913  46.4406493  26.9520113  61.1614913  43.9996493
  27.5030113  60.5544913  44.2996493  26.5270113  61.4244913  44.7146493
  26.9710113  61.1104913  44.1486493  17.2000113  59.8114913  43.4856493
  16.8320113  60.1134913  44.2166493  17.7340113  59.1824913  43.7696493
  17.2240113  59.7634913  43.6356493  16.8880113  68.2194913  50.9966493
  16.3140113  68.6354913  51.5056493  17.6210113  68.6844913  51.0916493
  16.9120113  68.3494913  51.0856493  28.9220113  62.9924913  40.5616493
  28.9900113  62.1424913  40.7426493  28.0990113  63.0784913  40.2836493
  28.8100113  62.8794913  40.5476493  22.8410113  63.8834913  39.4996493
  22.9410113  64.0224913  38.6446493  23.6590113  63.8234913  39.7956493
  22.9760113  63.8944913  39.4166493  32.1960113  64.3654913  53.7126493
  32.8300113  64.1954913  54.2866493  32.6130113  64.7684913  53.0606493
  32.3510113  64.4004913  53.7016493  28.0760113  68.2124913  39.3016493
  27.8250113  68.0844913  40.1276493  27.7590113  67.5174913  38.8806493
  27.9920113  68.0914913  39.3616493  32.8210113  58.9294913  54.4506493
  32.6250113  59.5734913  55.0056493  32.0990113  58.4394913  54.4426493
  32.6860113  58.9524913  54.5316493  32.7200113  59.8704913  47.4216493
  31.8870113  60.1204913  47.3496493  32.6640113  59.0304913  47.6506493
  32.5890113  59.7834913  47.4446493  21.9800113  56.8584913  52.6156493
  22.2140113  56.2824913  52.0026493  21.1380113  56.6774913  52.7566493
  21.8900113  56.7464913  52.5456493  29.6070113  64.4764913  55.0676493
  30.4780113  64.4404913  55.0316493  29.3880113  64.8964913  54.3356493
  29.7040113  64.5324913  54.9546493  24.9620113  66.4204913  38.7316493
  25.6790113  66.0734913  38.3756493  24.9280113  67.2204913  38.3836493
  25.0630113  66.4874913  38.6276493  26.3710113  55.0614913  22.9704083
  26.1260113  55.5494913  22.2904083  27.2340113  54.9884913  22.8704083
  26.4620113  55.1224913  22.8554083  26.1800113  61.9774913  27.6414083
  25.6560113  62.5734913  28.0044083  26.5770113  61.6094913  28.3254083
  26.1610113  62.0114913  27.7964083  16.0490113  66.1174913  23.0974083
  15.6080113  66.2354913  23.8404083  15.7660113  65.3424913  22.8124083
  15.9420113  66.0204913  23.1654083  32.3240113  69.4184913  20.6124083
  33.0250113  68.8994913  20.6084083  31.7370113  68.9734913  20.1434083
  32.3410113  69.2754913  20.5424083  15.7920113  59.9094913  19.6044083
  15.0140113  60.0714913  19.2444083  15.8310113  59.0384913  19.6264083
  15.6830113  59.8044913  19.5544083  18.9310113  65.1724913  18.2764083
  18.5390113  64.8014913  17.5904083  18.8510113  64.5744913  18.9054083
  18.8610113  65.0294913  18.2674083  28.8510113  63.0444913  24.3174083
  28.9310113  63.0484913  23.4484083  28.2670113  62.4124913  24.4664083
  28.7760113  62.9514913  24.2114083  18.5580113  66.8134913  22.1764083
  19.1660113  66.6434913  22.7794083  17.8070113  66.6734913  22.5974083
  18.5370113  66.7674913  22.3274083  22.8400113  56.1484913  22.1254083
  22.7700113  56.8254913  21.5794083  23.5810113  55.7604913  21.8764083
  22.9390113  56.1914913  22.0074083  17.4490113  69.9044913  18.2534083
  17.9160113  69.9884913  17.5214083  17.9040113  69.3264913  18.7224083
  17.5850113  69.8314913  18.2144083  15.9890113  68.8524913  29.3524083
  16.1180113  68.5724913  30.1684083  15.3790113  68.3114913  29.0434083
  15.9180113  68.7314913  29.4274083  22.5630113  66.3774913  34.4194083
  22.3270113  66.3744913  35.2594083  21.8150113  66.2294913  33.9954083
  22.4170113  66.3544913  34.4804083  17.4350113  63.3734913  23.5544083
  16.9730113  62.9814913  22.9274083  18.1350113  62.8604913  23.6464083
  17.4700113  63.2404913  23.4754083  21.9430113  58.9834913  28.9014083
  22.6210113  59.0014913  28.3524083  21.8980113  58.1474913  29.1464083
  22.0360113  58.8624913  28.8564083  19.4360113  61.4734913  23.5774083
  20.2530113  61.2864913  23.8204083  18.9590113  60.8594913  23.9734083
  19.4860113  61.3554913  23.6724083  23.6400113  67.4544913  26.1874083
  23.9880113  66.6554913  26.2174083  24.3050113  67.9584913  25.9324083
  23.7900113  67.4104913  26.1544083  23.6970113  66.9034913  22.3984083
  24.0280113  66.2594913  22.8844083  23.9370113  66.6924913  21.5874083
  23.7810113  66.7774913  22.3504083  25.6650113  61.0344913  33.7374083
  24.8170113  60.9354913  33.5594083  25.6940113  61.7794913  34.1914083
  25.5440113  61.1304913  33.7784083  20.0330113  56.5674913  22.8434083
  19.7370113  57.0684913  22.1934083  20.9000113  56.6454913  22.7864083
  20.1170113  56.6534913  22.7394083  30.2230113  53.9944913  32.8514083
  30.0650113  54.7634913  32.4694083  29.4510113  53.7744913  33.1954083
  30.0850113  54.0754913  32.8464083  23.0120113  55.7094913  25.0664083
  23.0850113  56.5694913  25.1954083  22.9740113  55.6344913  24.1984083
  23.0170113  55.8254913  24.9574083  27.6850113  58.6354913  17.3654083
  27.2350113  59.3164913  17.6724083  27.7990113  58.1314913  18.0684083
  27.6360113  58.6614913  17.5144083  15.8910113  61.1344913  26.5674083
  15.6350113  61.9654913  26.4924083  15.2270113  60.7514913  26.9844083
  15.7550113  61.2004913  26.6184083  21.6410113  68.6884913  21.9474083
  21.0620113  68.4134913  22.5394083  22.2650113  68.0794913  21.9724083
  21.6480113  68.5584913  22.0384083  18.9200113  55.9514913  27.0584083
  18.3990113  55.3234913  26.7504083  19.5110113  55.5144913  27.5294083
  18.9310113  55.7934913  27.0824083  22.2260113  58.0844913  36.3564083
  22.3430113  57.6304913  35.6204083  22.5140113  58.8824913  36.1534083
  22.2860113  58.1354913  36.2174083  33.0790113  58.6084913  23.6604083
  32.7330113  59.2864913  24.0864083  32.4430113  58.0104913  23.6764083
  32.9340113  58.6204913  23.7254083  17.9590113  57.6814913  35.3404083
  17.1810113  57.2914913  35.2684083  18.4500113  57.2694913  34.7494083
  17.9160113  57.5624913  35.2424083  18.1640113  68.0014913  25.8984083
  18.5870113  67.6454913  25.2244083  18.4880113  67.5794913  26.5904083
  18.2740113  67.8864913  25.9014083  24.6080113  55.3244913  34.5084083
  24.7860113  54.5154913  34.2334083  24.4650113  55.7654913  33.7694083
  24.6130113  55.2704913  34.3584083  25.2020113  60.2504913  23.2814083
  25.4890113  60.0184913  22.4914083  25.9340113  60.3294913  23.7504083
  25.3520113  60.2274913  23.2344083  25.9240113  60.5894913  18.4024083
  26.2050113  61.3774913  18.6514083  25.1480113  60.7544913  18.0394083
  25.8510113  60.7304913  18.3854083  32.7540113  56.9314913  29.0294083
  33.5110113  57.0034913  28.6014083  32.8170113  56.1584913  29.4284083
  32.8750113  56.8284913  29.0244083  15.3070113  58.2294913  32.9264083
  15.3030113  58.8164913  33.5724083  15.9010113  58.5414913  32.3694083
  15.3940113  58.3624913  32.9394083  27.6450113  68.5634913  33.4684083
  27.6110113  68.9454913  34.2524083  28.4990113  68.5214913  33.2974083
  27.7660113  68.6134913  33.5594083  24.7830113  68.7604913  18.2184083
  24.6020113  69.3054913  18.8754083  25.5490113  69.0504913  17.9174083
  24.8690113  68.8844913  18.2714083  28.2900113  56.6564913  19.2724083
  28.8300113  55.9744913  19.3484083  28.3520113  57.0544913  20.0464083
  28.3790113  56.6144913  19.3984083  16.2440113  57.8244913  21.8414083
  16.1300113  56.9604913  21.8724083  15.7690113  58.1184913  22.5114083
  16.1570113  57.7404913  21.9444083  25.5480113  59.0324913  20.5864083
  25.0400113  58.3704913  20.3324083  25.6000113  59.5364913  19.8764083
  25.4810113  59.0094913  20.4444083  25.5480113  55.9734913  20.4774083
  25.0930113  55.5714913  19.8514083  26.3210113  56.1284913  20.1024083
  25.5950113  55.9374913  20.3294083  24.1460113  58.3404913  24.9994083
  24.2200113  58.9084913  24.3414083  24.2670113  58.8324913  25.7094083
  24.1740113  58.4974913  25.0074083  29.3710113  68.1754913  23.4114083
  30.0720113  67.6934913  23.6004083  28.7110113  67.6064913  23.4564083
  29.3770113  68.0204913  23.4454083  19.7470113  69.0854913  32.6234083
  20.5880113  69.1484913  32.4014083  19.7100113  69.4824913  33.3994083
  19.8660113  69.1534913  32.7054083  18.7540113  54.1634913  23.3474083
  19.2900113  54.8514913  23.3374083  18.7570113  53.8894913  22.5194083
  18.8330113  54.2244913  23.2234083  21.7100113  64.5964913  27.3724083
  21.8820113  64.3864913  28.2014083  21.0550113  64.0624913  27.1564083
  21.6390113  64.4864913  27.4634083  27.9380113  58.5104913  30.8874083
  27.8430113  58.8294913  31.6934083  27.3450113  57.8714913  30.8494083
  27.8360113  58.4624913  31.0014083  22.4600113  64.5344913  29.9624083
  22.5130113  65.3814913  30.1644083  22.1750113  64.1644913  30.6994083
  22.4260113  64.6044913  30.1004083  28.6370113  65.2294913  29.0924083
  28.1230113  64.8174913  29.6634083  28.5110113  66.0734913  29.2734083
  28.5430113  65.2934913  29.2034083  29.1940113  54.4544913  23.7234083
  29.2430113  54.1364913  24.5344083  29.5170113  53.8104913  23.2304083
  29.2490113  54.3124913  23.7704083  15.2810113  68.9054913  36.1734083
  16.0370113  69.2544913  36.4314083  15.4580113  68.0524913  36.1164083
  15.4190113  68.8304913  36.2034083  31.6580113  58.6904913  32.0314083
  32.4300113  58.4654913  32.3684083  31.1830113  58.9074913  32.7314083
  31.7020113  58.6894913  32.1844083  19.2020113  57.9734913  25.0014083
  19.4740113  57.5434913  24.2934083  19.0260113  57.3374913  25.5724083
  19.2160113  57.8164913  24.9814083  31.8900113  65.6684913  19.2194083
  32.0090113  65.3814913  20.0344083  32.6970113  65.6894913  18.8894083
  32.0260113  65.6294913  19.2914083  19.0260113  65.4004913  24.5504083
  19.8770113  65.3204913  24.3774083  18.6690113  64.7184913  24.1384083
  19.0990113  65.2874913  24.4634083  17.3430113  59.0754913  28.0834083
  18.1860113  59.2954913  28.0404083  16.9540113  59.6484913  27.5524083
  17.4100113  59.1924913  27.9984083  29.7850113  62.2054913  18.8044083
  29.5650113  62.9364913  18.3824083  29.3370113  62.2564913  19.5514083
  29.6860113  62.3204913  18.8524083  21.3940113  65.4074913  22.7854083
  22.1070113  65.9024913  22.8754083  21.6160113  64.8404913  22.1594083
  21.5320113  65.3964913  22.7064083  33.9720113  57.0664913  18.2574083
  33.3100113  56.4984913  18.2804083  33.7790113  57.5784913  17.5774083
  33.8460113  57.0584913  18.1604083  15.5500113  67.0504913  26.1054083
  14.8830113  67.5384913  26.3814083  16.2300113  67.5954913  26.1344083
  15.5520113  67.2024913  26.1504083  23.1970113  60.7604913  36.2014083
  22.7130113  61.3374913  36.6434083  23.1690113  61.0554913  35.3804083
  23.1210113  60.8894913  36.1454083  34.2950113  61.4444913  30.8134083
  34.5100113  60.6444913  30.5374083  33.4450113  61.5044913  30.6244083
  34.2010113  61.3354913  30.7444083  15.6160113  63.7344913  21.2084083
  15.4310113  62.8954913  21.3604083  16.2750113  63.6984913  20.6384083
  15.6860113  63.6054913  21.1464083  31.9740113  56.6244913  20.5364083
  32.7200113  56.2174913  20.7354083  32.2370113  57.3394913  20.1114083
  32.1230113  56.6704913  20.5034083  25.9170113  69.1104913  25.1124083
  25.3940113  69.7444913  24.8194083  26.2270113  68.7464913  24.3834083
  25.8850113  69.1504913  24.9614083  15.7880113  67.8984913  20.7834083
  16.3400113  68.4674913  21.1474083  15.5560113  67.3834913  21.4484083
  15.8350113  67.9064913  20.9354083  19.9920113  66.8984913  27.8724083
  20.4590113  67.1874913  28.5504083  20.5640113  66.4204913  27.4184083
  20.1460113  66.8704913  27.9054083  28.4280113  58.9124913  25.6094083
  28.7720113  59.0644913  26.3964083  27.9750113  58.1744913  25.7224083
  28.4120113  58.8254913  25.7424083  15.6180113  66.3474913  18.4114083
  16.3740113  65.9154913  18.4694083  15.6330113  66.8794913  19.1024083
  15.7320113  66.3624913  18.5224083  16.5580113  64.5684913  26.4164083
  16.9890113  64.4394913  25.6694083  16.3530113  65.4164913  26.3904083
  16.5910113  64.6744913  26.3024083  22.9040113  58.1324913  20.0664083
  22.9020113  58.0154913  19.2014083  22.7230113  58.9804913  20.1584083
  22.8770113  58.2404913  19.9524083  20.6420113  68.0844913  24.6984083
  20.7680113  68.9274913  24.8854083  21.3100113  67.6854913  25.0944083
  20.7600113  68.1504913  24.7844083  18.7720113  61.5674913  34.5604083
  18.2360113  61.0614913  35.0284083  18.7920113  61.1774913  33.7804083
  18.6950113  61.4344913  34.5144083  19.2570113  60.9644913  19.7004083
  19.1290113  60.5164913  20.4384083  18.6750113  60.6224913  19.1484083
  19.1520113  60.8474913  19.7284083  19.4240113  62.7944913  26.2994083
  18.6430113  62.7354913  25.9164083  19.4960113  62.0424913  26.7364083
  19.3190113  62.6754913  26.3074083  19.8540113  62.5314913  29.7674083
  19.8790113  61.8564913  29.2164083  19.2080113  63.0274913  29.4554083
  19.7630113  62.5044913  29.6404083  29.7490113  60.2444913  28.1634083
  29.0870113  60.5724913  28.6264083  29.9360113  60.8784913  27.5944083
  29.6790113  60.3864913  28.1474083  26.3940113  56.1504913  31.5924083
  26.5430113  55.3254913  31.3494083  26.7730113  56.2054913  32.3764083
  26.4720113  56.0364913  31.6724083  27.9420113  58.2134913  21.6744083
  28.4320113  58.9304913  21.5974083  27.1520113  58.4744913  21.4114083
  27.8980113  58.3574913  21.6244083  17.6530113  63.8864913  35.3264083
  17.6160113  64.3874913  34.6124083  17.9840113  63.1344913  35.0314083
  17.6960113  63.8484913  35.1774083  29.2560113  66.0914913  33.5844083
  29.7400113  66.8094913  33.6824083  29.6500113  65.6644913  32.9334083
  29.3860113  66.1344913  33.5024083  23.5520113  68.9364913  34.7614083
  23.9060113  68.7584913  35.5384083  23.1160113  68.2074913  34.5624083
  23.5400113  68.8024913  34.8474083  24.5240113  59.6834913  27.3994083
  25.0040113  60.3824913  27.6074083  24.8970113  59.0364913  27.8504083
  24.6500113  59.6914913  27.4964083  26.7130113  62.8524913  19.6734083
  26.7050113  63.5744913  19.1834083  26.0740113  62.9874913  20.2504083
  26.6180113  62.9794913  19.6864083  31.6850113  66.7224913  23.6544083
  32.0410113  66.3724913  24.3694083  31.6770113  66.0614913  23.0844083
  31.7370113  66.5724913  23.6754083  27.7430113  66.6394913  26.8984083
  26.9460113  66.8634913  27.1724083  28.0010113  66.0454913  27.4834083
  27.6630113  66.5844913  27.0254083  21.3060113  55.1944913  19.3344083
  21.4030113  55.0874913  20.1954083  20.5980113  55.7004913  19.2694083
  21.2160113  55.2534913  19.4524083  31.0030113  64.6374913  31.7444083
  31.0580113  64.7624913  30.8824083  31.7560113  64.9574913  32.0464083
  31.1220113  64.7024913  31.6614083  32.0350113  54.9354913  34.7314083
  31.3980113  54.5354913  34.2894083  32.0610113  54.5044913  35.4894083
  31.9450113  54.8134913  34.7774083  18.4280113  63.5014913  20.5774083
  18.7520113  62.7224913  20.3554083  19.0740113  63.8694913  21.0324083
  18.5710113  63.4404913  20.6114083  26.7340113  64.4434913  31.3444083
  26.5790113  65.0534913  31.9484083  27.2680113  63.8854913  31.7504083
  26.7900113  64.4514913  31.4934083  15.4250113  55.1624913  21.5454083
  15.5540113  54.4544913  21.0534083  15.0580113  54.8444913  22.2704083
  15.3900113  55.0104913  21.5804083  25.1180113  62.8434913  22.0024083
  25.1770113  63.4934913  22.5814083  24.9290113  62.1474913  22.4934083
  25.0990113  62.8364913  22.1604083  30.3440113  67.1724913  27.8714083
  29.8650113  67.4704913  27.2054083  29.9880113  66.3964913  28.0494083
  30.2210113  67.1014913  27.7994083  19.6140113  57.3604913  18.5144083
  19.1030113  57.4134913  17.8084083  20.3980113  57.6004913  18.2184083
  19.6540113  57.4034913  18.3664083  24.3410113  64.8904913  26.4334083
  23.4940113  64.6964913  26.5144083  24.6650113  64.7254913  27.2264083
  24.2630113  64.8374913  26.5624083  18.1890113  64.5834913  28.7494083
  18.9110113  65.0714913  28.7124083  17.9190113  64.5534913  27.9204083
  18.2560113  64.6514913  28.6214083  21.4190113  59.7544913  25.4844083
  22.2650113  59.5644913  25.5824083  21.0490113  58.9774913  25.3464083
  21.4890113  59.6114913  25.4784083  16.2400113  61.0924913  22.1394083
  16.7290113  60.8004913  22.8004083  16.3690113  60.4994913  21.5124083
  16.3310113  60.9614913  22.1444083  31.2750113  64.1144913  28.9904083
  31.2680113  63.3384913  29.3884083  30.4340113  64.3484913  28.9834083
  31.1500113  64.0344913  29.0484083  20.7650113  62.5264913  17.6254083
  20.1550113  62.1214913  18.0994083  20.3790113  62.6444913  16.8524083
  20.6180113  62.4834913  17.5814083  17.5840113  65.6354913  33.0274083
  17.1630113  65.1174913  32.4664083  17.2320113  66.4214913  32.8844083
  17.4700113  65.6754913  32.9234083  32.5310113  64.1854913  26.4274083
  32.2450113  64.5864913  27.1474083  33.3910113  64.1234913  26.5544083
  32.6160113  64.2354913  26.5524083  22.2200113  60.9874913  20.3354083
  22.4920113  61.8134913  20.4024083  21.3570113  61.0624913  20.2394083
  22.1330113  61.1204913  20.3304083  30.1930113  58.1094913  34.9674083
  29.6680113  58.5684913  35.4914083  29.8320113  57.3144913  34.9614083
  30.0620113  58.0594913  35.0434083  15.7000113  56.9574913  26.8714083
  15.7440113  57.3014913  26.0704083  16.4550113  57.1944913  27.2384083
  15.8180113  57.0434913  26.8074083  33.6620113  69.8184913  26.9564083
  33.9520113  70.0754913  26.1754083  34.3570113  69.9144913  27.4754083
  33.8080113  69.8704913  26.9174083  28.6850113  61.6784913  35.0434083
  28.7580113  61.7824913  35.9064083  28.0510113  62.2364913  34.8224083
  28.6020113  61.7764913  35.1384083  30.9530113  61.9974913  33.4084083
  31.2720113  62.7834913  33.6114083  30.5830113  61.7274913  34.1514083
  30.9460113  62.0734913  33.5484083  30.2670113  68.4214913  18.9384083
  30.6010113  67.6154913  18.9734083  29.5120113  68.3494913  19.3684083
  30.2050113  68.2914913  19.0074083  30.7490113  60.2554913  24.5974083
  30.0040113  59.9324913  24.9154083  30.7510113  61.0814913  24.8774083
  30.6390113  60.3294913  24.6854083  33.6510113  62.5394913  36.1434083
  33.5990113  62.1984913  35.3424083  34.3880113  63.0064913  36.1214083
  33.7520113  62.5584913  36.0214083  33.1890113  66.2154913  32.3494083
  33.8170113  65.6664913  32.0934083  33.1280113  66.7804913  31.6874083
  33.2730113  66.2184913  32.2134083  27.6410113  66.2964913  18.3414083
  28.3250113  65.7824913  18.1724083  27.2240113  66.3424913  17.5764083
  27.6800113  66.2274913  18.2034083  22.3230113  67.4464913  29.6454083
  22.0250113  68.0384913  30.2124083  22.3780113  67.8884913  28.8964083
  22.2870113  67.5994913  29.6184083  20.3020113  66.3964913  33.0434083
  19.4960113  66.1064913  33.2104083  20.2130113  67.2644913  33.0494083
  20.1700113  66.4814913  33.0684083  29.6610113  56.5854913  32.0584083
  30.4050113  57.0374913  31.9954083  29.0950113  57.0554913  31.5894083
  29.6880113  56.7224913  31.9804083  24.8390113  63.8694913  29.1364083
  25.3150113  64.2434913  29.7644083  24.0160113  64.0034913  29.3954083
  24.7880113  63.9444913  29.2674083  21.5490113  59.4724913  31.8774083
  21.7100113  58.7284913  32.3044083  21.5040113  59.2234913  31.0424083
  21.5660113  59.3254913  31.8174083  30.9460113  54.5654913  29.7284083
  30.6660113  55.3904913  29.6844083  31.6620113  54.6184913  30.2244083
  31.0110113  54.6954913  29.7954083  23.3010113  55.2804913  31.7574083
  24.0060113  55.6004913  31.3554083  23.5420113  54.4734913  31.9844083
  23.4400113  55.2084913  31.7314083  22.2860113  69.4904913  27.7534083
  21.6620113  70.0724913  27.5714083  22.5340113  69.2044913  26.9674083
  22.2300113  69.5344913  27.6104083  26.5950113  66.1244913  34.7424083
  27.3520113  66.4104913  34.4164083  26.0480113  66.1764913  34.0644083
  26.6260113  66.1744913  34.5934083  30.5040113  68.6744913  33.2464083
  30.8500113  68.9444913  34.0004083  30.7980113  69.2564913  32.6664083
  30.5990113  68.8004913  33.2724083  32.3670113  60.8204913  18.5854083
  32.7450113  61.4974913  18.1854083  31.5250113  61.0444913  18.6164083
  32.2980113  60.9534913  18.5304083  23.8800113  64.2664913  17.6684083
  23.0750113  64.0894913  17.3834083  23.8470113  65.1174913  17.8604083
  23.7560113  64.3654913  17.6554083  19.8100113  60.3334913  27.8184083
  20.2500113  60.2304913  27.0724083  20.3550113  60.0204913  28.4234083
  19.9550113  60.2724913  27.7974083  27.8260113  59.4354913  33.4104083
  27.1780113  59.9054913  33.7584083  28.3910113  59.3464913  34.0694083
  27.8140113  59.4914913  33.5594083  27.5140113  60.9724913  29.7084083
  27.8160113  61.3924913  30.4114083  27.5500113  60.1324913  29.9404083
  27.5640113  60.9104913  29.8464083  30.0620113  60.4194913  21.9604083
  30.2690113  60.2184913  22.7844083  30.8180113  60.6874913  21.6184083
  30.2040113  60.4294913  22.0314083  23.3570113  55.3184913  27.8654083
  22.5310113  55.1694913  28.1024083  23.3170113  55.3534913  26.9944083
  23.2290113  55.3014913  27.7714083  31.0840113  56.5024913  23.4344083
  30.3700113  56.0314913  23.6054083  30.9220113  56.8434913  22.6484083
  30.9550113  56.4834913  23.3434083  31.5270113  64.4464913  21.8144083
  32.0030113  63.7174913  21.7664083  30.7060113  64.1604913  21.7384083
  31.4760113  64.2964913  21.7954083  24.9980113  66.3584913  32.6534083
  24.2030113  66.2944913  33.0044083  25.0690113  67.2054913  32.4584083
  24.8910113  66.4734913  32.6764083  15.9220113  55.7164913  33.9004083
  15.7820113  56.5114913  33.5694083  15.1360113  55.4734913  34.1894083
  15.7850113  55.7984913  33.8944083  18.9860113  58.4604913  21.1254083
  19.1120113  58.1314913  20.3274083  18.1740113  58.2114913  21.3244083
  18.8850113  58.3754913  21.0374083  27.7430113  65.6134913  24.1694083
  27.8190113  65.9544913  24.9684083  27.9120113  64.7664913  24.2904083
  27.7790113  65.5384913  24.3054083  25.2650113  64.8874913  23.7344083
  24.9670113  64.5724913  24.4914083  25.9600113  65.3604913  23.9694083
  25.3240113  64.9104913  23.8814083  25.4870113  69.0054913  31.7614083
  26.1740113  68.8914913  32.2864083  25.6210113  69.7964913  31.4174083
  25.6080113  69.1054913  31.7884083  33.6630113  61.6144913  33.5724083
  32.8080113  61.4924913  33.6984083  33.8160113  61.2194913  32.8094083
  33.5590113  61.5374913  33.4784083  28.1760113  62.2794913  32.1484083
  27.9210113  61.5604913  32.5704083  28.9970113  62.3954913  32.4184083
  28.2600113  62.1904913  32.2504083  26.1100113  63.4694913  35.3354083
  26.4330113  64.1554913  34.9034083  25.4060113  63.7924913  35.7374083
  26.0530113  63.6184913  35.3304083  25.8950113  66.9334913  29.1944083
  25.2010113  67.3354913  29.5374083  26.5720113  67.3664913  29.5334083
  25.8920113  67.0564913  29.2954083  31.2720113  69.5264913  35.7744083
  32.0480113  69.1364913  35.8574083  30.8030113  69.1904913  36.4294083
  31.3170113  69.4194913  35.8834083  18.9630113  60.4714913  31.5414083
  19.3380113  61.0904913  31.0544083  19.6370113  59.9974913  31.8264083
  19.1180113  60.4934913  31.5114083  16.7380113  58.9194913  30.8164083
  16.8150113  58.7504913  29.9634083  17.4840113  59.3254913  31.0134083
  16.8590113  58.9544913  30.7194083  32.2970113  61.5594913  21.2564083
  32.4000113  61.5014913  20.3924083  33.0380113  61.2274913  21.5744083
  32.4220113  61.5024913  21.1754083  19.2920113  56.3294913  33.2274083
  19.2110113  55.4854913  33.4334083  18.9780113  56.3734913  32.4144083
  19.2340113  56.2114913  33.1374083  26.2170113  68.5244913  22.3634083
  26.0120113  69.3574913  22.2044083  25.4420113  68.1424913  22.4854083
  26.0720113  68.5914913  22.3584083  31.3990113  61.7054913  30.6124083
  31.3970113  60.8424913  30.7364083  31.4660113  62.0294913  31.4194083
  31.4090113  61.6254913  30.7494083  16.1350113  64.1454913  31.0404083
  16.4550113  64.3644913  30.2594083  16.0350113  63.2804913  30.9854083
  16.1670113  64.0504913  30.9174083  17.5910113  60.0814913  17.6584083
  16.9190113  60.0954913  18.2144083  17.6860113  59.2334913  17.4744083
  17.5060113  59.9584913  17.7134083  27.2780113  56.5054913  34.3944083
  27.3700113  57.2174913  34.8884083  26.6410113  56.0604913  34.7914083
  27.1970113  56.5444913  34.5264083  26.2720113  56.6954913  25.2484083
  25.5720113  57.2134913  25.1924083  26.3100113  56.3154913  24.4644083
  26.1740113  56.7164913  25.1244083  21.5790113  68.7864913  18.7724083
  22.0200113  68.8664913  19.5204083  20.7740113  68.5704913  19.0304083
  21.5250113  68.7664913  18.9214083  29.8700113  57.2114913  28.0484083
  30.7250113  57.3104913  28.1934083  29.5010113  57.7644913  28.6134083
  29.9420113  57.3084913  28.1534083  20.8980113  63.4374913  32.4254083
  20.5020113  64.2114913  32.5004083  20.4920113  63.0644913  31.7494083
  20.7800113  63.4964913  32.3364083  30.1740113  62.4914913  26.5394083
  30.8400113  63.0324913  26.6994083  29.8290113  62.8024913  25.8004083
  30.2210113  62.6174913  26.4544083  18.9080113  67.8564913  19.3734083
  18.6640113  67.5494913  20.1534083  18.8750113  67.1534913  18.8574083
  18.8670113  67.7074913  19.4124083  21.7270113  66.1014913  18.1164083
  20.9090113  65.8334913  18.2564083  21.6990113  66.9534913  18.3014083
  21.6020113  66.1884913  18.1644083  21.3270113  56.4144913  29.8754083
  20.4630113  56.4984913  29.9554083  21.5470113  55.9004913  30.5444083
  21.2320113  56.3514913  29.9864083  33.3450113  55.0494913  31.2044083
  33.2930113  55.0054913  32.0744083  34.0320113  54.5464913  31.0144083
  33.4390113  54.9694913  31.3044083  25.4300113  57.1624913  28.2494083
  24.6930113  56.7084913  28.3624083  26.0010113  56.7604913  28.7724083
  25.4050113  57.0354913  28.3434083  28.1620113  68.0104913  30.0374083
  28.3680113  68.3114913  30.8294083  28.1010113  68.7324913  29.5524083
  28.1830113  68.1614913  30.0824083  22.9330113  61.4914913  33.4534083
  22.6110113  60.9154913  32.8834083  22.5740113  62.2464913  33.2074083
  22.8330113  61.5174913  33.3334083  23.7290113  54.7434913  18.0804083
  23.8070113  54.9904913  17.2474083  22.9860113  55.1204913  18.3384083
  23.6310113  54.8354913  17.9954083  32.9740113  66.6494913  29.4954083
  32.9420113  65.7874913  29.3604083  32.2810113  66.9514913  29.0614083
  32.8670113  66.5664913  29.4114083  31.0790113  69.9094913  28.2924083
  31.6060113  69.8264913  27.6014083  30.6880113  69.1314913  28.3464083
  31.0990113  69.7824913  28.1984083  18.5470113  56.4974913  30.5234083
  18.2040113  55.7304913  30.2894083  17.8520113  57.0214913  30.5874083
  18.3940113  56.4614913  30.4984083  27.5930113  55.3534913  27.5004083
  28.2630113  55.8974913  27.6274083  27.0900113  55.7774913  26.9274083
  27.6180113  55.4964913  27.4344083  26.9520113  61.1614913  24.9934083
  27.5030113  60.5544913  25.2934083  26.5270113  61.4244913  25.7084083
  26.9710113  61.1104913  25.1424083  17.2000113  59.8114913  24.4794083
  16.8320113  60.1134913  25.2104083  17.7340113  59.1824913  24.7634083
  17.2240113  59.7634913  24.6294083  16.8880113  68.2194913  31.9904083
  16.3140113  68.6354913  32.4994083  17.6210113  68.6844913  32.0854083
  16.9120113  68.3494913  32.0794083  28.9220113  62.9924913  21.5554083
  28.9900113  62.1424913  21.7364083  28.0990113  63.0784913  21.2774083
  28.8100113  62.8794913  21.5414083  22.8410113  63.8834913  20.4934083
  22.9410113  64.0224913  19.6384083  23.6590113  63.8234913  20.7894083
  22.9760113  63.8944913  20.4104083  32.1960113  64.3654913  34.7064083
  32.8300113  64.1954913  35.2804083  32.6130113  64.7684913  34.0544083
  32.3510113  64.4004913  34.6954083  28.0760113  68.2124913  20.2954083
  27.8250113  68.0844913  21.1214083  27.7590113  67.5174913  19.8744083
  27.9920113  68.0914913  20.3554083  32.8210113  58.9294913  35.4444083
  32.6250113  59.5734913  35.9994083  32.0990113  58.4394913  35.4364083
  32.6860113  58.9524913  35.5254083  32.7200113  59.8704913  28.4154083
  31.8870113  60.1204913  28.3434083  32.6640113  59.0304913  28.6444083
  32.5890113  59.7834913  28.4384083  21.9800113  56.8584913  33.6094083
  22.2140113  56.2824913  32.9964083  21.1380113  56.6774913  33.7504083
  21.8900113  56.7464913  33.5394083  29.6070113  64.4764913  36.0614083
  30.4780113  64.4404913  36.0254083  29.3880113  64.8964913  35.3294083
  29.7040113  64.5324913  35.9484083  24.9620113  66.4204913  19.7254083
  25.6790113  66.0734913  19.3694083  24.9280113  67.2204913  19.3774083
  25.0630113  66.4874913  19.6214083  26.3710113  55.0614913   3.9641673
  26.1260113  55.5494913   3.2841673  27.2340113  54.9884913   3.8641673
  26.4620113  55.1224913   3.8491673  26.1800113  61.9774913   8.6351673
  25.6560113  62.5734913   8.9981673  26.5770113  61.6094913   9.3191673
  26.1610113  62.0114913   8.7901673  16.0490113  66.1174913   4.0911673
  15.6080113  66.2354913   4.8341673  15.7660113  65.3424913   3.8061673
  15.9420113  66.0204913   4.1591673  28.8510113  63.0444913   5.3111673
  28.9310113  63.0484913   4.4421673  28.2670113  62.4124913   5.4601673
  28.7760113  62.9514913   5.2051673  18.5580113  66.8134913   3.1701673
  19.1660113  66.6434913   3.7731673  17.8070113  66.6734913   3.5911673
  18.5370113  66.7674913   3.3211673  22.8400113  56.1484913   3.1191673
  22.7700113  56.8254913   2.5731673  23.5810113  55.7604913   2.8701673
  22.9390113  56.1914913   3.0011673  15.9890113  68.8524913  10.3461673
  16.1180113  68.5724913  11.1621673  15.3790113  68.3114913  10.0371673
  15.9180113  68.7314913  10.4211673  22.5630113  66.3774913  15.4131673
  22.3270113  66.3744913  16.2531673  21.8150113  66.2294913  14.9891673
  22.4170113  66.3544913  15.4741673  17.4350113  63.3734913   4.5481673
  16.9730113  62.9814913   3.9211673  18.1350113  62.8604913   4.6401673
  17.4700113  63.2404913   4.4691673  21.9430113  58.9834913   9.8951673
  22.6210113  59.0014913   9.3461673  21.8980113  58.1474913  10.1401673
  22.0360113  58.8624913   9.8501673  19.4360113  61.4734913   4.5711673
  20.2530113  61.2864913   4.8141673  18.9590113  60.8594913   4.9671673
  19.4860113  61.3554913   4.6661673  23.6400113  67.4544913   7.1811673
  23.9880113  66.6554913   7.2111673  24.3050113  67.9584913   6.9261673
  23.7900113  67.4104913   7.1481673  23.6970113  66.9034913   3.3921673
  24.0280113  66.2594913   3.8781673  23.9370113  66.6924913   2.5811673
  23.7810113  66.7774913   3.3441673  25.6650113  61.0344913  14.7311673
  24.8170113  60.9354913  14.5531673  25.6940113  61.7794913  15.1851673
  25.5440113  61.1304913  14.7721673  20.0330113  56.5674913   3.8371673
  19.7370113  57.0684913   3.1871673  20.9000113  56.6454913   3.7801673
  20.1170113  56.6534913   3.7331673  30.2230113  53.9944913  13.8451673
  30.0650113  54.7634913  13.4631673  29.4510113  53.7744913  14.1891673
  30.0850113  54.0754913  13.8401673  23.0120113  55.7094913   6.0601673
  23.0850113  56.5694913   6.1891673  22.9740113  55.6344913   5.1921673
  23.0170113  55.8254913   5.9511673  15.8910113  61.1344913   7.5611673
  15.6350113  61.9654913   7.4861673  15.2270113  60.7514913   7.9781673
  15.7550113  61.2004913   7.6121673  21.6410113  68.6884913   2.9411673
  21.0620113  68.4134913   3.5331673  22.2650113  68.0794913   2.9661673
  21.6480113  68.5584913   3.0321673  18.9200113  55.9514913   8.0521673
  18.3990113  55.3234913   7.7441673  19.5110113  55.5144913   8.5231673
  18.9310113  55.7934913   8.0761673  22.2260113  58.0844913  17.3501673
  22.3430113  57.6304913  16.6141673  22.5140113  58.8824913  17.1471673
  22.2860113  58.1354913  17.2111673  33.0790113  58.6084913   4.6541673
  32.7330113  59.2864913   5.0801673  32.4430113  58.0104913   4.6701673
  32.9340113  58.6204913   4.7191673  17.9590113  57.6814913  16.3341673
  17.1810113  57.2914913  16.2621673  18.4500113  57.2694913  15.7431673
  17.9160113  57.5624913  16.2361673  18.1640113  68.0014913   6.8921673
  18.5870113  67.6454913   6.2181673  18.4880113  67.5794913   7.5841673
  18.2740113  67.8864913   6.8951673  24.6080113  55.3244913  15.5021673
  24.7860113  54.5154913  15.2271673  24.4650113  55.7654913  14.7631673
  24.6130113  55.2704913  15.3521673  25.2020113  60.2504913   4.2751673
  25.4890113  60.0184913   3.4851673  25.9340113  60.3294913   4.7441673
  25.3520113  60.2274913   4.2281673  32.7540113  56.9314913  10.0231673
  33.5110113  57.0034913   9.5951673  32.8170113  56.1584913  10.4221673
  32.8750113  56.8284913  10.0181673  15.3070113  58.2294913  13.9201673
  15.3030113  58.8164913  14.5661673  15.9010113  58.5414913  13.3631673
  15.3940113  58.3624913  13.9331673  27.6450113  68.5634913  14.4621673
  27.6110113  68.9454913  15.2461673  28.4990113  68.5214913  14.2911673
  27.7660113  68.6134913  14.5531673  16.2440113  57.8244913   2.8351673
  16.1300113  56.9604913   2.8661673  15.7690113  58.1184913   3.5051673
  16.1570113  57.7404913   2.9381673  24.1460113  58.3404913   5.9931673
  24.2200113  58.9084913   5.3351673  24.2670113  58.8324913   6.7031673
  24.1740113  58.4974913   6.0011673  29.3710113  68.1754913   4.4051673
  30.0720113  67.6934913   4.5941673  28.7110113  67.6064913   4.4501673
  29.3770113  68.0204913   4.4391673  19.7470113  69.0854913  13.6171673
  20.5880113  69.1484913  13.3951673  19.7100113  69.4824913  14.3931673
  19.8660113  69.1534913  13.6991673  18.7540113  54.1634913   4.3411673
  19.2900113  54.8514913   4.3311673  18.7570113  53.8894913   3.5131673
  18.8330113  54.2244913   4.2171673  21.7100113  64.5964913   8.3661673
  21.8820113  64.3864913   9.1951673  21.0550113  64.0624913   8.1501673
  21.6390113  64.4864913   8.4571673  27.9380113  58.5104913  11.8811673
  27.8430113  58.8294913  12.6871673  27.3450113  57.8714913  11.8431673
  27.8360113  58.4624913  11.9951673  22.4600113  64.5344913  10.9561673
  22.5130113  65.3814913  11.1581673  22.1750113  64.1644913  11.6931673
  22.4260113  64.6044913  11.0941673  28.6370113  65.2294913  10.0861673
  28.1230113  64.8174913  10.6571673  28.5110113  66.0734913  10.2671673
  28.5430113  65.2934913  10.1971673  29.1940113  54.4544913   4.7171673
  29.2430113  54.1364913   5.5281673  29.5170113  53.8104913   4.2241673
  29.2490113  54.3124913   4.7641673  15.2810113  68.9054913  17.1671673
  16.0370113  69.2544913  17.4251673  15.4580113  68.0524913  17.1101673
  15.4190113  68.8304913  17.1971673  31.6580113  58.6904913  13.0251673
  32.4300113  58.4654913  13.3621673  31.1830113  58.9074913  13.7251673
  31.7020113  58.6894913  13.1781673  19.2020113  57.9734913   5.9951673
  19.4740113  57.5434913   5.2871673  19.0260113  57.3374913   6.5661673
  19.2160113  57.8164913   5.9751673  19.0260113  65.4004913   5.5441673
  19.8770113  65.3204913   5.3711673  18.6690113  64.7184913   5.1321673
  19.0990113  65.2874913   5.4571673  17.3430113  59.0754913   9.0771673
  18.1860113  59.2954913   9.0341673  16.9540113  59.6484913   8.5461673
  17.4100113  59.1924913   8.9921673  21.3940113  65.4074913   3.7791673
  22.1070113  65.9024913   3.8691673  21.6160113  64.8404913   3.1531673
  21.5320113  65.3964913   3.7001673  15.5500113  67.0504913   7.0991673
  14.8830113  67.5384913   7.3751673  16.2300113  67.5954913   7.1281673
  15.5520113  67.2024913   7.1441673  23.1970113  60.7604913  17.1951673
  22.7130113  61.3374913  17.6371673  23.1690113  61.0554913  16.3741673
  23.1210113  60.8894913  17.1391673  34.2950113  61.4444913  11.8071673
  34.5100113  60.6444913  11.5311673  33.4450113  61.5044913  11.6181673
  34.2010113  61.3354913  11.7381673  15.6160113  63.7344913   2.2021673
  15.4310113  62.8954913   2.3541673  16.2750113  63.6984913   1.6321673
  15.6860113  63.6054913   2.1401673  25.9170113  69.1104913   6.1061673
  25.3940113  69.7444913   5.8131673  26.2270113  68.7464913   5.3771673
  25.8850113  69.1504913   5.9551673  15.7880113  67.8984913   1.7771673
  16.3400113  68.4674913   2.1411673  15.5560113  67.3834913   2.4421673
  15.8350113  67.9064913   1.9291673  19.9920113  66.8984913   8.8661673
  20.4590113  67.1874913   9.5441673  20.5640113  66.4204913   8.4121673
  20.1460113  66.8704913   8.8991673  28.4280113  58.9124913   6.6031673
  28.7720113  59.0644913   7.3901673  27.9750113  58.1744913   6.7161673
  28.4120113  58.8254913   6.7361673  16.5580113  64.5684913   7.4101673
  16.9890113  64.4394913   6.6631673  16.3530113  65.4164913   7.3841673
  16.5910113  64.6744913   7.2961673  20.6420113  68.0844913   5.6921673
  20.7680113  68.9274913   5.8791673  21.3100113  67.6854913   6.0881673
  20.7600113  68.1504913   5.7781673  18.7720113  61.5674913  15.5541673
  18.2360113  61.0614913  16.0221673  18.7920113  61.1774913  14.7741673
  18.6950113  61.4344913  15.5081673  19.4240113  62.7944913   7.2931673
  18.6430113  62.7354913   6.9101673  19.4960113  62.0424913   7.7301673
  19.3190113  62.6754913   7.3011673  19.8540113  62.5314913  10.7611673
  19.8790113  61.8564913  10.2101673  19.2080113  63.0274913  10.4491673
  19.7630113  62.5044913  10.6341673  29.7490113  60.2444913   9.1571673
  29.0870113  60.5724913   9.6201673  29.9360113  60.8784913   8.5881673
  29.6790113  60.3864913   9.1411673  26.3940113  56.1504913  12.5861673
  26.5430113  55.3254913  12.3431673  26.7730113  56.2054913  13.3701673
  26.4720113  56.0364913  12.6661673  27.9420113  58.2134913   2.6681673
  28.4320113  58.9304913   2.5911673  27.1520113  58.4744913   2.4051673
  27.8980113  58.3574913   2.6181673  17.6530113  63.8864913  16.3201673
  17.6160113  64.3874913  15.6061673  17.9840113  63.1344913  16.0251673
  17.6960113  63.8484913  16.1711673  29.2560113  66.0914913  14.5781673
  29.7400113  66.8094913  14.6761673  29.6500113  65.6644913  13.9271673
  29.3860113  66.1344913  14.4961673  23.5520113  68.9364913  15.7551673
  23.9060113  68.7584913  16.5321673  23.1160113  68.2074913  15.5561673
  23.5400113  68.8024913  15.8411673  24.5240113  59.6834913   8.3931673
  25.0040113  60.3824913   8.6011673  24.8970113  59.0364913   8.8441673
  24.6500113  59.6914913   8.4901673  31.6850113  66.7224913   4.6481673
  32.0410113  66.3724913   5.3631673  31.6770113  66.0614913   4.0781673
  31.7370113  66.5724913   4.6691673  27.7430113  66.6394913   7.8921673
  26.9460113  66.8634913   8.1661673  28.0010113  66.0454913   8.4771673
  27.6630113  66.5844913   8.0191673  31.0030113  64.6374913  12.7381673
  31.0580113  64.7624913  11.8761673  31.7560113  64.9574913  13.0401673
  31.1220113  64.7024913  12.6551673  32.0350113  54.9354913  15.7251673
  31.3980113  54.5354913  15.2831673  32.0610113  54.5044913  16.4831673
  31.9450113  54.8134913  15.7711673  26.7340113  64.4434913  12.3381673
  26.5790113  65.0534913  12.9421673  27.2680113  63.8854913  12.7441673
  26.7900113  64.4514913  12.4871673  15.4250113  55.1624913   2.5391673
  15.5540113  54.4544913   2.0471673  15.0580113  54.8444913   3.2641673
  15.3900113  55.0104913   2.5741673  25.1180113  62.8434913   2.9961673
  25.1770113  63.4934913   3.5751673  24.9290113  62.1474913   3.4871673
  25.0990113  62.8364913   3.1541673  30.3440113  67.1724913   8.8651673
  29.8650113  67.4704913   8.1991673  29.9880113  66.3964913   9.0431673
  30.2210113  67.1014913   8.7931673  24.3410113  64.8904913   7.4271673
  23.4940113  64.6964913   7.5081673  24.6650113  64.7254913   8.2201673
  24.2630113  64.8374913   7.5561673  18.1890113  64.5834913   9.7431673
  18.9110113  65.0714913   9.7061673  17.9190113  64.5534913   8.9141673
  18.2560113  64.6514913   9.6151673  21.4190113  59.7544913   6.4781673
  22.2650113  59.5644913   6.5761673  21.0490113  58.9774913   6.3401673
  21.4890113  59.6114913   6.4721673  16.2400113  61.0924913   3.1331673
  16.7290113  60.8004913   3.7941673  16.3690113  60.4994913   2.5061673
  16.3310113  60.9614913   3.1381673  31.2750113  64.1144913   9.9841673
  31.2680113  63.3384913  10.3821673  30.4340113  64.3484913   9.9771673
  31.1500113  64.0344913  10.0421673  17.5840113  65.6354913  14.0211673
  17.1630113  65.1174913  13.4601673  17.2320113  66.4214913  13.8781673
  17.4700113  65.6754913  13.9171673  32.5310113  64.1854913   7.4211673
  32.2450113  64.5864913   8.1411673  33.3910113  64.1234913   7.5481673
  32.6160113  64.2354913   7.5461673  30.1930113  58.1094913  15.9611673
  29.6680113  58.5684913  16.4851673  29.8320113  57.3144913  15.9551673
  30.0620113  58.0594913  16.0371673  15.7000113  56.9574913   7.8651673
  15.7440113  57.3014913   7.0641673  16.4550113  57.1944913   8.2321673
  15.8180113  57.0434913   7.8011673  33.6620113  69.8184913   7.9501673
  33.9520113  70.0754913   7.1691673  34.3570113  69.9144913   8.4691673
  33.8080113  69.8704913   7.9111673  28.6850113  61.6784913  16.0371673
  28.7580113  61.7824913  16.9001673  28.0510113  62.2364913  15.8161673
  28.6020113  61.7764913  16.1321673  30.9530113  61.9974913  14.4021673
  31.2720113  62.7834913  14.6051673  30.5830113  61.7274913  15.1451673
  30.9460113  62.0734913  14.5421673  30.7490113  60.2554913   5.5911673
  30.0040113  59.9324913   5.9091673  30.7510113  61.0814913   5.8711673
  30.6390113  60.3294913   5.6791673  33.6510113  62.5394913  17.1371673
  33.5990113  62.1984913  16.3361673  34.3880113  63.0064913  17.1151673
  33.7520113  62.5584913  17.0151673  33.1890113  66.2154913  13.3431673
  33.8170113  65.6664913  13.0871673  33.1280113  66.7804913  12.6811673
  33.2730113  66.2184913  13.2071673  22.3230113  67.4464913  10.6391673
  22.0250113  68.0384913  11.2061673  22.3780113  67.8884913   9.8901673
  22.2870113  67.5994913  10.6121673  20.3020113  66.3964913  14.0371673
  19.4960113  66.1064913  14.2041673  20.2130113  67.2644913  14.0431673
  20.1700113  66.4814913  14.0621673  29.6610113  56.5854913  13.0521673
  30.4050113  57.0374913  12.9891673  29.0950113  57.0554913  12.5831673
  29.6880113  56.7224913  12.9741673  24.8390113  63.8694913  10.1301673
  25.3150113  64.2434913  10.7581673  24.0160113  64.0034913  10.3891673
  24.7880113  63.9444913  10.2611673  21.5490113  59.4724913  12.8711673
  21.7100113  58.7284913  13.2981673  21.5040113  59.2234913  12.0361673
  21.5660113  59.3254913  12.8111673  30.9460113  54.5654913  10.7221673
  30.6660113  55.3904913  10.6781673  31.6620113  54.6184913  11.2181673
  31.0110113  54.6954913  10.7891673  23.3010113  55.2804913  12.7511673
  24.0060113  55.6004913  12.3491673  23.5420113  54.4734913  12.9781673
  23.4400113  55.2084913  12.7251673  22.2860113  69.4904913   8.7471673
  21.6620113  70.0724913   8.5651673  22.5340113  69.2044913   7.9611673
  22.2300113  69.5344913   8.6041673  26.5950113  66.1244913  15.7361673
  27.3520113  66.4104913  15.4101673  26.0480113  66.1764913  15.0581673
  26.6260113  66.1744913  15.5871673  30.5040113  68.6744913  14.2401673
  30.8500113  68.9444913  14.9941673  30.7980113  69.2564913  13.6601673
  30.5990113  68.8004913  14.2661673  19.8100113  60.3334913   8.8121673
  20.2500113  60.2304913   8.0661673  20.3550113  60.0204913   9.4171673
  19.9550113  60.2724913   8.7911673  27.8260113  59.4354913  14.4041673
  27.1780113  59.9054913  14.7521673  28.3910113  59.3464913  15.0631673
  27.8140113  59.4914913  14.5531673  27.5140113  60.9724913  10.7021673
  27.8160113  61.3924913  11.4051673  27.5500113  60.1324913  10.9341673
  27.5640113  60.9104913  10.8401673  30.0620113  60.4194913   2.9541673
  30.2690113  60.2184913   3.7781673  30.8180113  60.6874913   2.6121673
  30.2040113  60.4294913   3.0251673  23.3570113  55.3184913   8.8591673
  22.5310113  55.1694913   9.0961673  23.3170113  55.3534913   7.9881673
  23.2290113  55.3014913   8.7651673  31.0840113  56.5024913   4.4281673
  30.3700113  56.0314913   4.5991673  30.9220113  56.8434913   3.6421673
  30.9550113  56.4834913   4.3371673  31.5270113  64.4464913   2.8081673
  32.0030113  63.7174913   2.7601673  30.7060113  64.1604913   2.7321673
  31.4760113  64.2964913   2.7891673  24.9980113  66.3584913  13.6471673
  24.2030113  66.2944913  13.9981673  25.0690113  67.2054913  13.4521673
  24.8910113  66.4734913  13.6701673  15.9220113  55.7164913  14.8941673
  15.7820113  56.5114913  14.5631673  15.1360113  55.4734913  15.1831673
  15.7850113  55.7984913  14.8881673  27.7430113  65.6134913   5.1631673
  27.8190113  65.9544913   5.9621673  27.9120113  64.7664913   5.2841673
  27.7790113  65.5384913   5.2991673  25.2650113  64.8874913   4.7281673
  24.9670113  64.5724913   5.4851673  25.9600113  65.3604913   4.9631673
  25.3240113  64.9104913   4.8751673  25.4870113  69.0054913  12.7551673
  26.1740113  68.8914913  13.2801673  25.6210113  69.7964913  12.4111673
  25.6080113  69.1054913  12.7821673  33.6630113  61.6144913  14.5661673
  32.8080113  61.4924913  14.6921673  33.8160113  61.2194913  13.8031673
  33.5590113  61.5374913  14.4721673  28.1760113  62.2794913  13.1421673
  27.9210113  61.5604913  13.5641673  28.9970113  62.3954913  13.4121673
  28.2600113  62.1904913  13.2441673  26.1100113  63.4694913  16.3291673
  26.4330113  64.1554913  15.8971673  25.4060113  63.7924913  16.7311673
  26.0530113  63.6184913  16.3241673  25.8950113  66.9334913  10.1881673
  25.2010113  67.3354913  10.5311673  26.5720113  67.3664913  10.5271673
  25.8920113  67.0564913  10.2891673  31.2720113  69.5264913  16.7681673
  32.0480113  69.1364913  16.8511673  30.8030113  69.1904913  17.4231673
  31.3170113  69.4194913  16.8771673  18.9630113  60.4714913  12.5351673
  19.3380113  61.0904913  12.0481673  19.6370113  59.9974913  12.8201673
  19.1180113  60.4934913  12.5051673  16.7380113  58.9194913  11.8101673
  16.8150113  58.7504913  10.9571673  17.4840113  59.3254913  12.0071673
  16.8590113  58.9544913  11.7131673  19.2920113  56.3294913  14.2211673
  19.2110113  55.4854913  14.4271673  18.9780113  56.3734913  13.4081673
  19.2340113  56.2114913  14.1311673  26.2170113  68.5244913   3.3571673
  26.0120113  69.3574913   3.1981673  25.4420113  68.1424913   3.4791673
  26.0720113  68.5914913   3.3521673  31.3990113  61.7054913  11.6061673
  31.3970113  60.8424913  11.7301673  31.4660113  62.0294913  12.4131673
  31.4090113  61.6254913  11.7431673  16.1350113  64.1454913  12.0341673
  16.4550113  64.3644913  11.2531673  16.0350113  63.2804913  11.9791673
  16.1670113  64.0504913  11.9111673  27.2780113  56.5054913  15.3881673
  27.3700113  57.2174913  15.8821673  26.6410113  56.0604913  15.7851673
  27.1970113  56.5444913  15.5201673  26.2720113  56.6954913   6.2421673
  25.5720113  57.2134913   6.1861673  26.3100113  56.3154913   5.4581673
  26.1740113  56.7164913   6.1181673  29.8700113  57.2114913   9.0421673
  30.7250113  57.3104913   9.1871673  29.5010113  57.7644913   9.6071673
  29.9420113  57.3084913   9.1471673  20.8980113  63.4374913  13.4191673
  20.5020113  64.2114913  13.4941673  20.4920113  63.0644913  12.7431673
  20.7800113  63.4964913  13.3301673  30.1740113  62.4914913   7.5331673
  30.8400113  63.0324913   7.6931673  29.8290113  62.8024913   6.7941673
  30.2210113  62.6174913   7.4481673  21.3270113  56.4144913  10.8691673
  20.4630113  56.4984913  10.9491673  21.5470113  55.9004913  11.5381673
  21.2320113  56.3514913  10.9801673  33.3450113  55.0494913  12.1981673
  33.2930113  55.0054913  13.0681673  34.0320113  54.5464913  12.0081673
  33.4390113  54.9694913  12.2981673  25.4300113  57.1624913   9.2431673
  24.6930113  56.7084913   9.3561673  26.0010113  56.7604913   9.7661673
  25.4050113  57.0354913   9.3371673  28.1620113  68.0104913  11.0311673
  28.3680113  68.3114913  11.8231673  28.1010113  68.7324913  10.5461673
  28.1830113  68.1614913  11.0761673  22.9330113  61.4914913  14.4471673
  22.6110113  60.9154913  13.8771673  22.5740113  62.2464913  14.2011673
  22.8330113  61.5174913  14.3271673  32.9740113  66.6494913  10.4891673
  32.9420113  65.7874913  10.3541673  32.2810113  66.9514913  10.0551673
  32.8670113  66.5664913  10.4051673  31.0790113  69.9094913   9.2861673
  31.6060113  69.8264913   8.5951673  30.6880113  69.1314913   9.3401673
  31.0990113  69.7824913   9.1921673  18.5470113  56.4974913  11.5171673
  18.2040113  55.7304913  11.2831673  17.8520113  57.0214913  11.5811673
  18.3940113  56.4614913  11.4921673  27.5930113  55.3534913   8.4941673
  28.2630113  55.8974913   8.6211673  27.0900113  55.7774913   7.9211673
  27.6180113  55.4964913   8.4281673  26.9520113  61.1614913   5.9871673
  27.5030113  60.5544913   6.2871673  26.5270113  61.4244913   6.7021673
  26.9710113  61.1104913   6.1361673  17.2000113  59.8114913   5.4731673
  16.8320113  60.1134913   6.2041673  17.7340113  59.1824913   5.7571673
  17.2240113  59.7634913   5.6231673  16.8880113  68.2194913  12.9841673
  16.3140113  68.6354913  13.4931673  17.6210113  68.6844913  13.0791673
  16.9120113  68.3494913  13.0731673  28.9220113  62.9924913   2.5491673
  28.9900113  62.1424913   2.7301673  28.0990113  63.0784913   2.2711673
  28.8100113  62.8794913   2.5351673  32.1960113  64.3654913  15.7001673
  32.8300113  64.1954913  16.2741673  32.6130113  64.7684913  15.0481673
  32.3510113  64.4004913  15.6891673  32.8210113  58.9294913  16.4381673
  32.6250113  59.5734913  16.9931673  32.0990113  58.4394913  16.4301673
  32.6860113  58.9524913  16.5191673  32.7200113  59.8704913   9.4091673
  31.8870113  60.1204913   9.3371673  32.6640113  59.0304913   9.6381673
  32.5890113  59.7834913   9.4321673  21.9800113  56.8584913  14.6031673
  22.2140113  56.2824913  13.9901673  21.1380113  56.6774913  14.7441673
  21.8900113  56.7464913  14.5331673  29.6070113  64.4764913  17.0551673
  30.4780113  64.4404913  17.0191673  29.3880113  64.8964913  16.3231673
  29.7040113  64.5324913  16.9421673  26.3710113  36.5833833  79.9891313
  26.1260113  37.0713833  79.3091313  27.2340113  36.5103833  79.8891313
  26.4620113  36.6443833  79.8741313  26.1800113  43.4993833  84.6601313
  25.6560113  44.0953833  85.0231313  26.5770113  43.1313833  85.3441313
  26.1610113  43.5333833  84.8151313  16.0490113  47.6393833  80.1161313
  15.6080113  47.7573833  80.8591313  15.7660113  46.8643833  79.8311313
  15.9420113  47.5423833  80.1841313  32.3240113  50.9403833  77.6311313
  33.0250113  50.4213833  77.6271313  31.7370113  50.4953833  77.1621313
  32.3410113  50.7973833  77.5611313  15.7920113  41.4313833  76.6231313
  15.0140113  41.5933833  76.2631313  15.8310113  40.5603833  76.6451313
  15.6830113  41.3263833  76.5731313  18.9310113  46.6943833  75.2951313
  18.5390113  46.3233833  74.6091313  18.8510113  46.0963833  75.9241313
  18.8610113  46.5513833  75.2861313  28.8510113  44.5663833  81.3361313
  28.9310113  44.5703833  80.4671313  28.2670113  43.9343833  81.4851313
  28.7760113  44.4733833  81.2301313  18.5580113  48.3353833  79.1951313
  19.1660113  48.1653833  79.7981313  17.8070113  48.1953833  79.6161313
  18.5370113  48.2893833  79.3461313  22.8400113  37.6703833  79.1441313
  22.7700113  38.3473833  78.5981313  23.5810113  37.2823833  78.8951313
  22.9390113  37.7133833  79.0261313  17.4490113  51.4263833  75.2721313
  17.9160113  51.5103833  74.5401313  17.9040113  50.8483833  75.7411313
  17.5850113  51.3533833  75.2331313  15.9890113  50.3743833  86.3711313
  16.1180113  50.0943833  87.1871313  15.3790113  49.8333833  86.0621313
  15.9180113  50.2533833  86.4461313  17.4350113  44.8953833  80.5731313
  16.9730113  44.5033833  79.9461313  18.1350113  44.3823833  80.6651313
  17.4700113  44.7623833  80.4941313  21.9430113  40.5053833  85.9201313
  22.6210113  40.5233833  85.3711313  21.8980113  39.6693833  86.1651313
  22.0360113  40.3843833  85.8751313  22.5450113  51.0913833  88.7011313
  22.6830113  51.8513833  88.2941313  23.3360113  50.7263833  88.7281313
  22.6820113  51.1503833  88.6451313  19.4360113  42.9953833  80.5961313
  20.2530113  42.8083833  80.8391313  18.9590113  42.3813833  80.9921313
  19.4860113  42.8773833  80.6911313  23.6400113  48.9763833  83.2061313
  23.9880113  48.1773833  83.2361313  24.3050113  49.4803833  82.9511313
  23.7900113  48.9323833  83.1731313  23.6970113  48.4253833  79.4171313
  24.0280113  47.7813833  79.9031313  23.9370113  48.2143833  78.6061313
  23.7810113  48.2993833  79.3691313  20.0330113  38.0893833  79.8621313
  19.7370113  38.5903833  79.2121313  20.9000113  38.1673833  79.8051313
  20.1170113  38.1753833  79.7581313  23.0120113  37.2313833  82.0851313
  23.0850113  38.0913833  82.2141313  22.9740113  37.1563833  81.2171313
  23.0170113  37.3473833  81.9761313  27.6850113  40.1573833  74.3841313
  27.2350113  40.8383833  74.6911313  27.7990113  39.6533833  75.0871313
  27.6360113  40.1833833  74.5331313  15.8910113  42.6563833  83.5861313
  15.6350113  43.4873833  83.5111313  15.2270113  42.2733833  84.0031313
  15.7550113  42.7223833  83.6371313  15.8010113  52.3663833  81.4861313
  15.2090113  52.9243833  81.1731313  16.2270113  52.0973833  80.7741313
  15.7770113  52.4083833  81.3351313  21.6410113  50.2103833  78.9661313
  21.0620113  49.9353833  79.5581313  22.2650113  49.6013833  78.9911313
  21.6480113  50.0803833  79.0571313  27.7840113  52.4983833  76.4881313
  28.5110113  52.9703833  76.5901313  28.0130113  51.7043833  76.7681313
  27.9260113  52.4513833  76.5451313  25.9520113  52.8903833  78.4781313
  26.1660113  53.4173833  79.1401313  26.7190113  52.7163833  78.0991313
  26.0970113  52.9423833  78.5201313  18.9200113  37.4733833  84.0771313
  18.3990113  36.8453833  83.7691313  19.5110113  37.0363833  84.5481313
  18.9310113  37.3153833  84.1011313  17.3460113  51.0363833  79.4171313
  18.0020113  50.4613833  79.4321313  17.7350113  51.7853833  79.1961313
  17.5010113  51.0613833  79.3871313  33.0790113  40.1303833  80.6791313
  32.7330113  40.8083833  81.1051313  32.4430113  39.5323833  80.6951313
  32.9340113  40.1423833  80.7441313  28.3910113  52.9003833  86.7831313
  29.1350113  53.3563833  86.7731313  28.2700113  52.6863833  85.9461313
  28.4830113  52.9363833  86.6581313  18.1640113  49.5233833  82.9171313
  18.5870113  49.1673833  82.2431313  18.4880113  49.1013833  83.6091313
  18.2740113  49.4083833  82.9201313  21.3950113  52.3753833  82.2131313
  22.2390113  52.4793833  82.0181313  21.0980113  53.1933833  82.2811313
  21.4760113  52.5113833  82.1941313  25.2020113  41.7723833  80.3001313
  25.4890113  41.5403833  79.5101313  25.9340113  41.8513833  80.7691313
  25.3520113  41.7493833  80.2531313  25.9240113  42.1113833  75.4211313
  26.2050113  42.8993833  75.6701313  25.1480113  42.2763833  75.0581313
  25.8510113  42.2523833  75.4041313  29.9650113  54.0853833  76.8881313
  30.6300113  53.9373833  76.3431313  30.3250113  54.0023833  77.6781313
  30.1170113  54.0513833  76.9241313  20.3930113  53.5943833  87.9531313
  20.6850113  53.5273833  88.7731313  19.7670113  52.9893833  87.9081313
  20.3440113  53.4953833  88.0681313  32.7540113  38.4533833  86.0481313
  33.5110113  38.5253833  85.6201313  32.8170113  37.6803833  86.4471313
  32.8750113  38.3503833  86.0431313  24.7830113  50.2823833  75.2371313
  24.6020113  50.8273833  75.8941313  25.5490113  50.5723833  74.9361313
  24.8690113  50.4063833  75.2901313  28.2900113  38.1783833  76.2911313
  28.8300113  37.4963833  76.3671313  28.3520113  38.5763833  77.0651313
  28.3790113  38.1363833  76.4171313  16.2440113  39.3463833  78.8601313
  16.1300113  38.4823833  78.8911313  15.7690113  39.6403833  79.5301313
  16.1570113  39.2623833  78.9631313  18.3860113  51.7563833  87.0751313
  17.6880113  51.2483833  87.2011313  18.6460113  51.5513833  86.2671313
  18.3210113  51.6513833  86.9741313  25.5480113  40.5543833  77.6051313
  25.0400113  39.8923833  77.3511313  25.6000113  41.0583833  76.8951313
  25.4810113  40.5313833  77.4631313  26.0970113  53.2493833  87.9851313
  26.8650113  53.1693833  87.5791313  25.5140113  53.1283833  87.3471313
  26.1240113  53.2193833  87.8311313  25.5480113  37.4953833  77.4961313
  25.0930113  37.0933833  76.8701313  26.3210113  37.6503833  77.1211313
  25.5950113  37.4593833  77.3481313  32.3740113  53.8523833  80.8861313
  31.9190113  54.5693833  81.0871313  31.7600113  53.2813833  80.6441313
  32.2160113  53.8743833  80.8801313  24.1460113  39.8623833  82.0181313
  24.2200113  40.4303833  81.3601313  24.2670113  40.3543833  82.7281313
  24.1740113  40.0193833  82.0261313  29.3710113  49.6973833  80.4301313
  30.0720113  49.2153833  80.6191313  28.7110113  49.1283833  80.4751313
  29.3770113  49.5423833  80.4641313  18.7540113  35.6853833  80.3661313
  19.2900113  36.3733833  80.3561313  18.7570113  35.4113833  79.5381313
  18.8330113  35.7463833  80.2421313  21.7100113  46.1183833  84.3911313
  21.8820113  45.9083833  85.2201313  21.0550113  45.5843833  84.1751313
  21.6390113  46.0083833  84.4821313  27.9380113  40.0323833  87.9061313
  27.8430113  40.3513833  88.7121313  27.3450113  39.3933833  87.8681313
  27.8360113  39.9843833  88.0201313  22.4600113  46.0563833  86.9811313
  22.5130113  46.9033833  87.1831313  22.1750113  45.6863833  87.7181313
  22.4260113  46.1263833  87.1191313  28.6370113  46.7513833  86.1111313
  28.1230113  46.3393833  86.6821313  28.5110113  47.5953833  86.2921313
  28.5430113  46.8153833  86.2221313  29.1940113  35.9763833  80.7421313
  29.2430113  35.6583833  81.5531313  29.5170113  35.3323833  80.2491313
  29.2490113  35.8343833  80.7891313  31.6580113  40.2123833  89.0501313
  32.4300113  39.9873833  89.3871313  31.1830113  40.4293833  89.7501313
  31.7020113  40.2113833  89.2031313  19.2020113  39.4953833  82.0201313
  19.4740113  39.0653833  81.3121313  19.0260113  38.8593833  82.5911313
  19.2160113  39.3383833  82.0001313  31.8900113  47.1903833  76.2381313
  32.0090113  46.9033833  77.0531313  32.6970113  47.2113833  75.9081313
  32.0260113  47.1513833  76.3101313  19.0260113  46.9223833  81.5691313
  19.8770113  46.8423833  81.3961313  18.6690113  46.2403833  81.1571313
  19.0990113  46.8093833  81.4821313  17.7930113  53.6473833  82.8061313
  17.1200113  53.1493833  82.5611313  18.1960113  53.8323833  82.0551313
  17.7530113  53.6013833  82.6591313  17.3430113  40.5973833  85.1021313
  18.1860113  40.8173833  85.0591313  16.9540113  41.1703833  84.5711313
  17.4100113  40.7143833  85.0171313  29.7850113  43.7273833  75.8231313
  29.5650113  44.4583833  75.4011313  29.3370113  43.7783833  76.5701313
  29.6860113  43.8423833  75.8711313  21.3940113  46.9293833  79.8041313
  22.1070113  47.4243833  79.8941313  21.6160113  46.3623833  79.1781313
  21.5320113  46.9183833  79.7251313  33.9720113  38.5883833  75.2761313
  33.3100113  38.0203833  75.2991313  33.7790113  39.1003833  74.5961313
  33.8460113  38.5803833  75.1791313  15.5500113  48.5723833  83.1241313
  14.8830113  49.0603833  83.4001313  16.2300113  49.1173833  83.1531313
  15.5520113  48.7243833  83.1691313  34.2950113  42.9663833  87.8321313
  34.5100113  42.1663833  87.5561313  33.4450113  43.0263833  87.6431313
  34.2010113  42.8573833  87.7631313  15.6160113  45.2563833  78.2271313
  15.4310113  44.4173833  78.3791313  16.2750113  45.2203833  77.6571313
  15.6860113  45.1273833  78.1651313  31.9740113  38.1463833  77.5551313
  32.7200113  37.7393833  77.7541313  32.2370113  38.8613833  77.1301313
  32.1230113  38.1923833  77.5221313  25.9170113  50.6323833  82.1311313
  25.3940113  51.2663833  81.8381313  26.2270113  50.2683833  81.4021313
  25.8850113  50.6723833  81.9801313  15.7880113  49.4203833  77.8021313
  16.3400113  49.9893833  78.1661313  15.5560113  48.9053833  78.4671313
  15.8350113  49.4283833  77.9541313  19.9920113  48.4203833  84.8911313
  20.4590113  48.7093833  85.5691313  20.5640113  47.9423833  84.4371313
  20.1460113  48.3923833  84.9241313  28.4280113  40.4343833  82.6281313
  28.7720113  40.5863833  83.4151313  27.9750113  39.6963833  82.7411313
  28.4120113  40.3473833  82.7611313  15.6180113  47.8693833  75.4301313
  16.3740113  47.4373833  75.4881313  15.6330113  48.4013833  76.1211313
  15.7320113  47.8843833  75.5411313  16.5580113  46.0903833  83.4351313
  16.9890113  45.9613833  82.6881313  16.3530113  46.9383833  83.4091313
  16.5910113  46.1963833  83.3211313  22.9040113  39.6543833  77.0851313
  22.9020113  39.5373833  76.2201313  22.7230113  40.5023833  77.1771313
  22.8770113  39.7623833  76.9711313  31.9580113  52.0813833  88.5821313
  31.2870113  52.5953833  88.8001313  32.0210113  52.1813833  87.7181313
  31.8680113  52.1723833  88.4871313  20.6420113  49.6063833  81.7171313
  20.7680113  50.4493833  81.9041313  21.3100113  49.2073833  82.1131313
  20.7600113  49.6723833  81.8031313  19.2570113  42.4863833  76.7191313
  19.1290113  42.0383833  77.4571313  18.6750113  42.1443833  76.1671313
  19.1520113  42.3693833  76.7471313  19.4240113  44.3163833  83.3181313
  18.6430113  44.2573833  82.9351313  19.4960113  43.5643833  83.7551313
  19.3190113  44.1973833  83.3261313  19.8540113  44.0533833  86.7861313
  19.8790113  43.3783833  86.2351313  19.2080113  44.5493833  86.4741313
  19.7630113  44.0263833  86.6591313  29.7490113  41.7663833  85.1821313
  29.0870113  42.0943833  85.6451313  29.9360113  42.4003833  84.6131313
  29.6790113  41.9083833  85.1661313  23.9540113  52.8303833  86.1781313
  23.6770113  52.1893833  85.6551313  23.7460113  53.5563833  85.7401313
  23.8830113  52.8433833  86.0361313  26.3940113  37.6723833  88.6111313
  26.5430113  36.8473833  88.3681313  26.7730113  37.7273833  89.3951313
  26.4720113  37.5583833  88.6911313  27.9420113  39.7353833  78.6931313
  28.4320113  40.4523833  78.6161313  27.1520113  39.9963833  78.4301313
  27.8980113  39.8793833  78.6431313  24.5240113  41.2053833  84.4181313
  25.0040113  41.9043833  84.6261313  24.8970113  40.5583833  84.8691313
  24.6500113  41.2133833  84.5151313  26.7130113  44.3743833  76.6921313
  26.7050113  45.0963833  76.2021313  26.0740113  44.5093833  77.2691313
  26.6180113  44.5013833  76.7051313  31.6850113  48.2443833  80.6731313
  32.0410113  47.8943833  81.3881313  31.6770113  47.5833833  80.1031313
  31.7370113  48.0943833  80.6941313  27.7300113  51.3103833  84.5171313
  27.1270113  51.0143833  83.9601313  28.2750113  51.7623833  84.0081313
  27.7210113  51.3333833  84.3591313  27.7430113  48.1613833  83.9171313
  26.9460113  48.3853833  84.1911313  28.0010113  47.5673833  84.5021313
  27.6630113  48.1063833  84.0441313  21.6350113  52.9733833  78.3651313
  21.4880113  52.1973833  78.7361313  22.3240113  52.8263833  77.8501313
  21.7150113  52.8363833  78.3441313  21.3060113  36.7163833  76.3531313
  21.4030113  36.6093833  77.2141313  20.5980113  37.2223833  76.2881313
  21.2160113  36.7753833  76.4711313  23.9270113  52.4893833  76.7671313
  24.5490113  52.6523833  77.3571313  23.9630113  53.1803833  76.2351313
  24.0240113  52.6153833  76.7761313  31.0030113  46.1593833  88.7631313
  31.0580113  46.2843833  87.9011313  31.7560113  46.4793833  89.0651313
  31.1220113  46.2243833  88.6801313  18.4280113  45.0233833  77.5961313
  18.7520113  44.2443833  77.3741313  19.0740113  45.3913833  78.0511313
  18.5710113  44.9623833  77.6301313  26.7340113  45.9653833  88.3631313
  26.5790113  46.5753833  88.9671313  27.2680113  45.4073833  88.7691313
  26.7900113  45.9733833  88.5121313  15.4250113  36.6843833  78.5641313
  15.5540113  35.9763833  78.0721313  15.0580113  36.3663833  79.2891313
  15.3900113  36.5323833  78.5991313  25.1180113  44.3653833  79.0211313
  25.1770113  45.0153833  79.6001313  24.9290113  43.6693833  79.5121313
  25.0990113  44.3583833  79.1791313  30.3440113  48.6943833  84.8901313
  29.8650113  48.9923833  84.2241313  29.9880113  47.9183833  85.0681313
  30.2210113  48.6233833  84.8181313  19.6140113  38.8823833  75.5331313
  19.1030113  38.9353833  74.8271313  20.3980113  39.1223833  75.2371313
  19.6540113  38.9253833  75.3851313  24.3410113  46.4123833  83.4521313
  23.4940113  46.2183833  83.5331313  24.6650113  46.2473833  84.2451313
  24.2630113  46.3593833  83.5811313  21.0930113  53.1423833  74.3381313
  21.5320113  52.4453833  74.6261313  21.3000113  53.7663833  74.9111313
  21.1890113  53.1313833  74.4651313  18.1890113  46.1053833  85.7681313
  18.9110113  46.5933833  85.7311313  17.9190113  46.0753833  84.9391313
  18.2560113  46.1733833  85.6401313  21.4190113  41.2763833  82.5031313
  22.2650113  41.0863833  82.6011313  21.0490113  40.4993833  82.3651313
  21.4890113  41.1333833  82.4971313  34.0360113  52.8603833  76.8301313
  34.7300113  52.3933833  76.5821313  33.4970113  52.2623833  77.1671313
  34.0590113  52.7023833  76.8431313  16.2400113  42.6143833  79.1581313
  16.7290113  42.3223833  79.8191313  16.3690113  42.0213833  78.5311313
  16.3310113  42.4833833  79.1631313  31.2750113  45.6363833  86.0091313
  31.2680113  44.8603833  86.4071313  30.4340113  45.8703833  86.0021313
  31.1500113  45.5563833  86.0671313  20.7650113  44.0483833  74.6441313
  20.1550113  43.6433833  75.1181313  20.3790113  44.1663833  73.8711313
  20.6180113  44.0053833  74.6001313  17.5840113  47.1573833  90.0461313
  17.1630113  46.6393833  89.4851313  17.2320113  47.9433833  89.9031313
  17.4700113  47.1973833  89.9421313  32.5310113  45.7073833  83.4461313
  32.2450113  46.1083833  84.1661313  33.3910113  45.6453833  83.5731313
  32.6160113  45.7573833  83.5711313  22.2200113  42.5093833  77.3541313
  22.4920113  43.3353833  77.4211313  21.3570113  42.5843833  77.2581313
  22.1330113  42.6423833  77.3491313  15.7000113  38.4793833  83.8901313
  15.7440113  38.8233833  83.0891313  16.4550113  38.7163833  84.2571313
  15.8180113  38.5653833  83.8261313  33.6620113  51.3403833  83.9751313
  33.9520113  51.5973833  83.1941313  34.3570113  51.4363833  84.4941313
  33.8080113  51.3923833  83.9361313  30.2670113  49.9433833  75.9571313
  30.6010113  49.1373833  75.9921313  29.5120113  49.8713833  76.3871313
  30.2050113  49.8133833  76.0261313  30.7490113  41.7773833  81.6161313
  30.0040113  41.4543833  81.9341313  30.7510113  42.6033833  81.8961313
  30.6390113  41.8513833  81.7041313  33.1890113  47.7373833  89.3681313
  33.8170113  47.1883833  89.1121313  33.1280113  48.3023833  88.7061313
  33.2730113  47.7403833  89.2321313  27.6410113  47.8183833  75.3601313
  28.3250113  47.3043833  75.1911313  27.2240113  47.8643833  74.5951313
  27.6800113  47.7493833  75.2221313  22.3230113  48.9683833  86.6641313
  22.0250113  49.5603833  87.2311313  22.3780113  49.4103833  85.9151313
  22.2870113  49.1213833  86.6371313  29.6610113  38.1073833  89.0771313
  30.4050113  38.5593833  89.0141313  29.0950113  38.5773833  88.6081313
  29.6880113  38.2443833  88.9991313  24.8390113  45.3913833  86.1551313
  25.3150113  45.7653833  86.7831313  24.0160113  45.5253833  86.4141313
  24.7880113  45.4663833  86.2861313  21.5490113  40.9943833  88.8961313
  21.7100113  40.2503833  89.3231313  21.5040113  40.7453833  88.0611313
  21.5660113  40.8473833  88.8361313  24.1030113  52.7843833  81.3831313
  24.6490113  53.4633833  81.4371313  23.7530113  52.8663833  80.5881313
  24.1320113  52.8973833  81.2731313  30.9460113  36.0873833  86.7471313
  30.6660113  36.9123833  86.7031313  31.6620113  36.1403833  87.2431313
  31.0110113  36.2173833  86.8141313  23.3010113  36.8023833  88.7761313
  24.0060113  37.1223833  88.3741313  23.5420113  35.9953833  89.0031313
  23.4400113  36.7303833  88.7501313  22.2860113  51.0123833  84.7721313
  21.6620113  51.5943833  84.5901313  22.5340113  50.7263833  83.9861313
  22.2300113  51.0563833  84.6291313  32.3670113  42.3423833  75.6041313
  32.7450113  43.0193833  75.2041313  31.5250113  42.5663833  75.6351313
  32.2980113  42.4753833  75.5491313  23.8800113  45.7883833  74.6871313
  23.0750113  45.6113833  74.4021313  23.8470113  46.6393833  74.8791313
  23.7560113  45.8873833  74.6741313  19.8100113  41.8553833  84.8371313
  20.2500113  41.7523833  84.0911313  20.3550113  41.5423833  85.4421313
  19.9550113  41.7943833  84.8161313  27.5140113  42.4943833  86.7271313
  27.8160113  42.9143833  87.4301313  27.5500113  41.6543833  86.9591313
  27.5640113  42.4323833  86.8651313  30.0620113  41.9413833  78.9791313
  30.2690113  41.7403833  79.8031313  30.8180113  42.2093833  78.6371313
  30.2040113  41.9513833  79.0501313  23.3570113  36.8403833  84.8841313
  22.5310113  36.6913833  85.1211313  23.3170113  36.8753833  84.0131313
  23.2290113  36.8233833  84.7901313  31.0840113  38.0243833  80.4531313
  30.3700113  37.5533833  80.6241313  30.9220113  38.3653833  79.6671313
  30.9550113  38.0053833  80.3621313  31.5270113  45.9683833  78.8331313
  32.0030113  45.2393833  78.7851313  30.7060113  45.6823833  78.7571313
  31.4760113  45.8183833  78.8141313  24.9980113  47.8803833  89.6721313
  24.2030113  47.8163833  90.0231313  25.0690113  48.7273833  89.4771313
  24.8910113  47.9953833  89.6951313  20.8280113  54.0873833  84.9891313
  20.8390113  54.1463833  85.8591313  20.4030113  53.3403833  84.8391313
  20.7670113  53.9853833  85.0951313  18.9860113  39.9823833  78.1441313
  19.1120113  39.6533833  77.3461313  18.1740113  39.7333833  78.3431313
  18.8850113  39.8973833  78.0561313  27.7430113  47.1353833  81.1881313
  27.8190113  47.4763833  81.9871313  27.9120113  46.2883833  81.3091313
  27.7790113  47.0603833  81.3241313  25.2650113  46.4093833  80.7531313
  24.9670113  46.0943833  81.5101313  25.9600113  46.8823833  80.9881313
  25.3240113  46.4323833  80.9001313  25.4870113  50.5273833  88.7801313
  26.1740113  50.4133833  89.3051313  25.6210113  51.3183833  88.4361313
  25.6080113  50.6273833  88.8071313  28.1760113  43.8013833  89.1671313
  27.9210113  43.0823833  89.5891313  28.9970113  43.9173833  89.4371313
  28.2600113  43.7123833  89.2691313  29.1940113  53.3653833  83.2831313
  28.7430113  54.0083833  83.6621313  29.9020113  53.2863833  83.7881313
  29.2320113  53.4483833  83.4141313  25.8950113  48.4553833  86.2131313
  25.2010113  48.8573833  86.5561313  26.5720113  48.8883833  86.5521313
  25.8920113  48.5783833  86.3141313  18.9630113  41.9933833  88.5601313
  19.3380113  42.6123833  88.0731313  19.6370113  41.5193833  88.8451313
  19.1180113  42.0153833  88.5301313  16.7380113  40.4413833  87.8351313
  16.8150113  40.2723833  86.9821313  17.4840113  40.8473833  88.0321313
  16.8590113  40.4763833  87.7381313  32.2970113  43.0813833  78.2751313
  32.4000113  43.0233833  77.4111313  33.0380113  42.7493833  78.5931313
  32.4220113  43.0243833  78.1941313  26.2170113  50.0463833  79.3821313
  26.0120113  50.8793833  79.2231313  25.4420113  49.6643833  79.5041313
  26.0720113  50.1133833  79.3771313  31.3990113  43.2273833  87.6311313
  31.3970113  42.3643833  87.7551313  31.4660113  43.5513833  88.4381313
  31.4090113  43.1473833  87.7681313  16.1350113  45.6673833  88.0591313
  16.4550113  45.8863833  87.2781313  16.0350113  44.8023833  88.0041313
  16.1670113  45.5723833  87.9361313  17.5910113  41.6033833  74.6771313
  16.9190113  41.6173833  75.2331313  17.6860113  40.7553833  74.4931313
  17.5060113  41.4803833  74.7321313  26.2720113  38.2173833  82.2671313
  25.5720113  38.7353833  82.2111313  26.3100113  37.8373833  81.4831313
  26.1740113  38.2383833  82.1431313  21.5790113  50.3083833  75.7911313
  22.0200113  50.3883833  76.5391313  20.7740113  50.0923833  76.0491313
  21.5250113  50.2883833  75.9401313  29.8700113  38.7333833  85.0671313
  30.7250113  38.8323833  85.2121313  29.5010113  39.2863833  85.6321313
  29.9420113  38.8303833  85.1721313  20.8980113  44.9593833  89.4441313
  20.5020113  45.7333833  89.5191313  20.4920113  44.5863833  88.7681313
  20.7800113  45.0183833  89.3551313  30.1740113  44.0133833  83.5581313
  30.8400113  44.5543833  83.7181313  29.8290113  44.3243833  82.8191313
  30.2210113  44.1393833  83.4731313  30.4870113  52.0793833  79.3651313
  30.3130113  51.4253833  79.9151313  31.2000113  51.8083833  78.9421313
  30.5670113  51.9423833  79.3841313  18.9080113  49.3783833  76.3921313
  18.6640113  49.0713833  77.1721313  18.8750113  48.6753833  75.8761313
  18.8670113  49.2293833  76.4311313  21.7270113  47.6233833  75.1351313
  20.9090113  47.3553833  75.2751313  21.6990113  48.4753833  75.3201313
  21.6020113  47.7103833  75.1831313  21.3270113  37.9363833  86.8941313
  20.4630113  38.0203833  86.9741313  21.5470113  37.4223833  87.5631313
  21.2320113  37.8733833  87.0051313  33.3450113  36.5713833  88.2231313
  33.2930113  36.5273833  89.0931313  34.0320113  36.0683833  88.0331313
  33.4390113  36.4913833  88.3231313  25.4300113  38.6843833  85.2681313
  24.6930113  38.2303833  85.3811313  26.0010113  38.2823833  85.7911313
  25.4050113  38.5573833  85.3621313  28.1620113  49.5323833  87.0561313
  28.3680113  49.8333833  87.8481313  28.1010113  50.2543833  86.5711313
  28.1830113  49.6833833  87.1011313  23.7290113  36.2653833  75.0991313
  23.8070113  36.5123833  74.2661313  22.9860113  36.6423833  75.3571313
  23.6310113  36.3573833  75.0141313  32.9740113  48.1713833  86.5141313
  32.9420113  47.3093833  86.3791313  32.2810113  48.4733833  86.0801313
  32.8670113  48.0883833  86.4301313  31.0790113  51.4313833  85.3111313
  31.6060113  51.3483833  84.6201313  30.6880113  50.6533833  85.3651313
  31.0990113  51.3043833  85.2171313  18.5470113  38.0193833  87.5421313
  18.2040113  37.2523833  87.3081313  17.8520113  38.5433833  87.6061313
  18.3940113  37.9833833  87.5171313  27.5930113  36.8753833  84.5191313
  28.2630113  37.4193833  84.6461313  27.0900113  37.2993833  83.9461313
  27.6180113  37.0183833  84.4531313  26.9520113  42.6833833  82.0121313
  27.5030113  42.0763833  82.3121313  26.5270113  42.9463833  82.7271313
  26.9710113  42.6323833  82.1611313  17.2000113  41.3333833  81.4981313
  16.8320113  41.6353833  82.2291313  17.7340113  40.7043833  81.7821313
  17.2240113  41.2853833  81.6481313  16.8880113  49.7413833  89.0091313
  16.3140113  50.1573833  89.5181313  17.6210113  50.2063833  89.1041313
  16.9120113  49.8713833  89.0981313  28.9220113  44.5143833  78.5741313
  28.9900113  43.6643833  78.7551313  28.0990113  44.6003833  78.2961313
  28.8100113  44.4013833  78.5601313  18.6740113  53.0083833  77.7841313
  18.5290113  53.1643833  76.9381313  19.5400113  53.0873833  77.8621313
  18.7810113  53.0433833  77.6711313  22.8410113  45.4053833  77.5121313
  22.9410113  45.5443833  76.6571313  23.6590113  45.3453833  77.8081313
  22.9760113  45.4163833  77.4291313  32.0010113  53.4693833  74.9921313
  32.6380113  53.3353833  75.5731313  31.6600113  52.6753833  74.8751313
  32.0450113  53.3323833  75.0601313  28.0760113  49.7343833  77.3141313
  27.8250113  49.6063833  78.1401313  27.7590113  49.0393833  76.8931313
  27.9920113  49.6133833  77.3741313  32.7200113  41.3923833  85.4341313
  31.8870113  41.6423833  85.3621313  32.6640113  40.5523833  85.6631313
  32.5890113  41.3053833  85.4571313  19.3610113  51.8233833  84.2611313
  19.2820113  51.0133833  83.9451313  18.9170113  52.3103833  83.6891313
  19.2840113  51.7753833  84.1301313  24.9620113  47.9423833  76.7441313
  25.6790113  47.5953833  76.3881313  24.9280113  48.7423833  76.3961313
  25.0630113  48.0093833  76.6401313  16.9330113  54.0673833  87.8421313
  17.4260113  54.0113833  88.5601313  17.1210113  53.3343833  87.4071313
  17.0340113  53.9503833  87.8841313  26.3710113  36.5833833  60.9828903
  26.1260113  37.0713833  60.3028903  27.2340113  36.5103833  60.8828903
  26.4620113  36.6443833  60.8678903  26.1800113  43.4993833  65.6538903
  25.6560113  44.0953833  66.0168903  26.5770113  43.1313833  66.3378903
  26.1610113  43.5333833  65.8088903  16.0490113  47.6393833  61.1098903
  15.6080113  47.7573833  61.8528903  15.7660113  46.8643833  60.8248903
  15.9420113  47.5423833  61.1778903  32.3240113  50.9403833  58.6248903
  33.0250113  50.4213833  58.6208903  31.7370113  50.4953833  58.1558903
  32.3410113  50.7973833  58.5548903  15.7920113  41.4313833  57.6168903
  15.0140113  41.5933833  57.2568903  15.8310113  40.5603833  57.6388903
  15.6830113  41.3263833  57.5668903  18.9310113  46.6943833  56.2888903
  18.5390113  46.3233833  55.6028903  18.8510113  46.0963833  56.9178903
  18.8610113  46.5513833  56.2798903  28.8510113  44.5663833  62.3298903
  28.9310113  44.5703833  61.4608903  28.2670113  43.9343833  62.4788903
  28.7760113  44.4733833  62.2238903  18.5580113  48.3353833  60.1888903
  19.1660113  48.1653833  60.7918903  17.8070113  48.1953833  60.6098903
  18.5370113  48.2893833  60.3398903  22.8400113  37.6703833  60.1378903
  22.7700113  38.3473833  59.5918903  23.5810113  37.2823833  59.8888903
  22.9390113  37.7133833  60.0198903  17.4490113  51.4263833  56.2658903
  17.9160113  51.5103833  55.5338903  17.9040113  50.8483833  56.7348903
  17.5850113  51.3533833  56.2268903  15.9890113  50.3743833  67.3648903
  16.1180113  50.0943833  68.1808903  15.3790113  49.8333833  67.0558903
  15.9180113  50.2533833  67.4398903  22.5630113  47.8993833  72.4318903
  22.3270113  47.8963833  73.2718903  21.8150113  47.7513833  72.0078903
  22.4170113  47.8763833  72.4928903  17.4350113  44.8953833  61.5668903
  16.9730113  44.5033833  60.9398903  18.1350113  44.3823833  61.6588903
  17.4700113  44.7623833  61.4878903  21.9430113  40.5053833  66.9138903
  22.6210113  40.5233833  66.3648903  21.8980113  39.6693833  67.1588903
  22.0360113  40.3843833  66.8688903  22.5450113  51.0913833  69.6948903
  22.6830113  51.8513833  69.2878903  23.3360113  50.7263833  69.7218903
  22.6820113  51.1503833  69.6388903  19.4360113  42.9953833  61.5898903
  20.2530113  42.8083833  61.8328903  18.9590113  42.3813833  61.9858903
  19.4860113  42.8773833  61.6848903  23.6400113  48.9763833  64.1998903
  23.9880113  48.1773833  64.2298903  24.3050113  49.4803833  63.9448903
  23.7900113  48.9323833  64.1668903  23.6970113  48.4253833  60.4108903
  24.0280113  47.7813833  60.8968903  23.9370113  48.2143833  59.5998903
  23.7810113  48.2993833  60.3628903  25.6650113  42.5563833  71.7498903
  24.8170113  42.4573833  71.5718903  25.6940113  43.3013833  72.2038903
  25.5440113  42.6523833  71.7908903  20.0330113  38.0893833  60.8558903
  19.7370113  38.5903833  60.2058903  20.9000113  38.1673833  60.7988903
  20.1170113  38.1753833  60.7518903  30.2230113  35.5163833  70.8638903
  30.0650113  36.2853833  70.4818903  29.4510113  35.2963833  71.2078903
  30.0850113  35.5973833  70.8588903  23.0120113  37.2313833  63.0788903
  23.0850113  38.0913833  63.2078903  22.9740113  37.1563833  62.2108903
  23.0170113  37.3473833  62.9698903  15.8910113  42.6563833  64.5798903
  15.6350113  43.4873833  64.5048903  15.2270113  42.2733833  64.9968903
  15.7550113  42.7223833  64.6308903  15.8010113  52.3663833  62.4798903
  15.2090113  52.9243833  62.1668903  16.2270113  52.0973833  61.7678903
  15.7770113  52.4083833  62.3288903  21.6410113  50.2103833  59.9598903
  21.0620113  49.9353833  60.5518903  22.2650113  49.6013833  59.9848903
  21.6480113  50.0803833  60.0508903  27.7840113  52.4983833  57.4818903
  28.5110113  52.9703833  57.5838903  28.0130113  51.7043833  57.7618903
  27.9260113  52.4513833  57.5388903  25.9520113  52.8903833  59.4718903
  26.1660113  53.4173833  60.1338903  26.7190113  52.7163833  59.0928903
  26.0970113  52.9423833  59.5138903  18.9200113  37.4733833  65.0708903
  18.3990113  36.8453833  64.7628903  19.5110113  37.0363833  65.5418903
  18.9310113  37.3153833  65.0948903  22.2260113  39.6063833  74.3688903
  22.3430113  39.1523833  73.6328903  22.5140113  40.4043833  74.1658903
  22.2860113  39.6573833  74.2298903  17.3460113  51.0363833  60.4108903
  18.0020113  50.4613833  60.4258903  17.7350113  51.7853833  60.1898903
  17.5010113  51.0613833  60.3808903  28.3910113  52.9003833  67.7768903
  29.1350113  53.3563833  67.7668903  28.2700113  52.6863833  66.9398903
  28.4830113  52.9363833  67.6518903  17.9590113  39.2033833  73.3528903
  17.1810113  38.8133833  73.2808903  18.4500113  38.7913833  72.7618903
  17.9160113  39.0843833  73.2548903  18.1640113  49.5233833  63.9108903
  18.5870113  49.1673833  63.2368903  18.4880113  49.1013833  64.6028903
  18.2740113  49.4083833  63.9138903  21.3950113  52.3753833  63.2068903
  22.2390113  52.4793833  63.0118903  21.0980113  53.1933833  63.2748903
  21.4760113  52.5113833  63.1878903  24.6080113  36.8463833  72.5208903
  24.7860113  36.0373833  72.2458903  24.4650113  37.2873833  71.7818903
  24.6130113  36.7923833  72.3708903  25.2020113  41.7723833  61.2938903
  25.4890113  41.5403833  60.5038903  25.9340113  41.8513833  61.7628903
  25.3520113  41.7493833  61.2468903  25.9240113  42.1113833  56.4148903
  26.2050113  42.8993833  56.6638903  25.1480113  42.2763833  56.0518903
  25.8510113  42.2523833  56.3978903  29.9650113  54.0853833  57.8818903
  30.6300113  53.9373833  57.3368903  30.3250113  54.0023833  58.6718903
  30.1170113  54.0513833  57.9178903  20.3930113  53.5943833  68.9468903
  20.6850113  53.5273833  69.7668903  19.7670113  52.9893833  68.9018903
  20.3440113  53.4953833  69.0618903  32.7540113  38.4533833  67.0418903
  33.5110113  38.5253833  66.6138903  32.8170113  37.6803833  67.4408903
  32.8750113  38.3503833  67.0368903  15.3070113  39.7513833  70.9388903
  15.3030113  40.3383833  71.5848903  15.9010113  40.0633833  70.3818903
  15.3940113  39.8843833  70.9518903  27.6450113  50.0853833  71.4808903
  27.6110113  50.4673833  72.2648903  28.4990113  50.0433833  71.3098903
  27.7660113  50.1353833  71.5718903  24.7830113  50.2823833  56.2308903
  24.6020113  50.8273833  56.8878903  25.5490113  50.5723833  55.9298903
  24.8690113  50.4063833  56.2838903  16.2440113  39.3463833  59.8538903
  16.1300113  38.4823833  59.8848903  15.7690113  39.6403833  60.5238903
  16.1570113  39.2623833  59.9568903  18.3860113  51.7563833  68.0688903
  17.6880113  51.2483833  68.1948903  18.6460113  51.5513833  67.2608903
  18.3210113  51.6513833  67.9678903  25.5480113  40.5543833  58.5988903
  25.0400113  39.8923833  58.3448903  25.6000113  41.0583833  57.8888903
  25.4810113  40.5313833  58.4568903  26.0970113  53.2493833  68.9788903
  26.8650113  53.1693833  68.5728903  25.5140113  53.1283833  68.3408903
  26.1240113  53.2193833  68.8248903  25.5480113  37.4953833  58.4898903
  25.0930113  37.0933833  57.8638903  26.3210113  37.6503833  58.1148903
  25.5950113  37.4593833  58.3418903  32.3740113  53.8523833  61.8798903
  31.9190113  54.5693833  62.0808903  31.7600113  53.2813833  61.6378903
  32.2160113  53.8743833  61.8738903  24.1460113  39.8623833  63.0118903
  24.2200113  40.4303833  62.3538903  24.2670113  40.3543833  63.7218903
  24.1740113  40.0193833  63.0198903  29.3710113  49.6973833  61.4238903
  30.0720113  49.2153833  61.6128903  28.7110113  49.1283833  61.4688903
  29.3770113  49.5423833  61.4578903  19.7470113  50.6073833  70.6358903
  20.5880113  50.6703833  70.4138903  19.7100113  51.0043833  71.4118903
  19.8660113  50.6753833  70.7178903  18.7540113  35.6853833  61.3598903
  19.2900113  36.3733833  61.3498903  18.7570113  35.4113833  60.5318903
  18.8330113  35.7463833  61.2358903  21.7100113  46.1183833  65.3848903
  21.8820113  45.9083833  66.2138903  21.0550113  45.5843833  65.1688903
  21.6390113  46.0083833  65.4758903  27.9380113  40.0323833  68.8998903
  27.8430113  40.3513833  69.7058903  27.3450113  39.3933833  68.8618903
  27.8360113  39.9843833  69.0138903  22.4600113  46.0563833  67.9748903
  22.5130113  46.9033833  68.1768903  22.1750113  45.6863833  68.7118903
  22.4260113  46.1263833  68.1128903  28.6370113  46.7513833  67.1048903
  28.1230113  46.3393833  67.6758903  28.5110113  47.5953833  67.2858903
  28.5430113  46.8153833  67.2158903  15.2810113  50.4273833  74.1858903
  16.0370113  50.7763833  74.4438903  15.4580113  49.5743833  74.1288903
  15.4190113  50.3523833  74.2158903  31.6580113  40.2123833  70.0438903
  32.4300113  39.9873833  70.3808903  31.1830113  40.4293833  70.7438903
  31.7020113  40.2113833  70.1968903  19.2020113  39.4953833  63.0138903
  19.4740113  39.0653833  62.3058903  19.0260113  38.8593833  63.5848903
  19.2160113  39.3383833  62.9938903  31.8900113  47.1903833  57.2318903
  32.0090113  46.9033833  58.0468903  32.6970113  47.2113833  56.9018903
  32.0260113  47.1513833  57.3038903  19.0260113  46.9223833  62.5628903
  19.8770113  46.8423833  62.3898903  18.6690113  46.2403833  62.1508903
  19.0990113  46.8093833  62.4758903  17.7930113  53.6473833  63.7998903
  17.1200113  53.1493833  63.5548903  18.1960113  53.8323833  63.0488903
  17.7530113  53.6013833  63.6528903  17.3430113  40.5973833  66.0958903
  18.1860113  40.8173833  66.0528903  16.9540113  41.1703833  65.5648903
  17.4100113  40.7143833  66.0108903  34.1240113  51.6993833  71.4858903
  33.4420113  52.0093833  71.0388903  33.7550113  51.2413833  72.1308903
  33.9680113  51.6773833  71.5148903  29.7850113  43.7273833  56.8168903
  29.5650113  44.4583833  56.3948903  29.3370113  43.7783833  57.5638903
  29.6860113  43.8423833  56.8648903  21.3940113  46.9293833  60.7978903
  22.1070113  47.4243833  60.8878903  21.6160113  46.3623833  60.1718903
  21.5320113  46.9183833  60.7188903  15.5500113  48.5723833  64.1178903
  14.8830113  49.0603833  64.3938903  16.2300113  49.1173833  64.1468903
  15.5520113  48.7243833  64.1628903  23.1970113  42.2823833  74.2138903
  22.7130113  42.8593833  74.6558903  23.1690113  42.5773833  73.3928903
  23.1210113  42.4113833  74.1578903  34.2950113  42.9663833  68.8258903
  34.5100113  42.1663833  68.5498903  33.4450113  43.0263833  68.6368903
  34.2010113  42.8573833  68.7568903  15.6160113  45.2563833  59.2208903
  15.4310113  44.4173833  59.3728903  16.2750113  45.2203833  58.6508903
  15.6860113  45.1273833  59.1588903  25.9170113  50.6323833  63.1248903
  25.3940113  51.2663833  62.8318903  26.2270113  50.2683833  62.3958903
  25.8850113  50.6723833  62.9738903  15.7880113  49.4203833  58.7958903
  16.3400113  49.9893833  59.1598903  15.5560113  48.9053833  59.4608903
  15.8350113  49.4283833  58.9478903  19.9920113  48.4203833  65.8848903
  20.4590113  48.7093833  66.5628903  20.5640113  47.9423833  65.4308903
  20.1460113  48.3923833  65.9178903  28.4280113  40.4343833  63.6218903
  28.7720113  40.5863833  64.4088903  27.9750113  39.6963833  63.7348903
  28.4120113  40.3473833  63.7548903  15.6180113  47.8693833  56.4238903
  16.3740113  47.4373833  56.4818903  15.6330113  48.4013833  57.1148903
  15.7320113  47.8843833  56.5348903  16.5580113  46.0903833  64.4288903
  16.9890113  45.9613833  63.6818903  16.3530113  46.9383833  64.4028903
  16.5910113  46.1963833  64.3148903  22.9040113  39.6543833  58.0788903
  22.9020113  39.5373833  57.2138903  22.7230113  40.5023833  58.1708903
  22.8770113  39.7623833  57.9648903  31.9580113  52.0813833  69.5758903
  31.2870113  52.5953833  69.7938903  32.0210113  52.1813833  68.7118903
  31.8680113  52.1723833  69.4808903  20.6420113  49.6063833  62.7108903
  20.7680113  50.4493833  62.8978903  21.3100113  49.2073833  63.1068903
  20.7600113  49.6723833  62.7968903  18.7720113  43.0893833  72.5728903
  18.2360113  42.5833833  73.0408903  18.7920113  42.6993833  71.7928903
  18.6950113  42.9563833  72.5268903  19.2570113  42.4863833  57.7128903
  19.1290113  42.0383833  58.4508903  18.6750113  42.1443833  57.1608903
  19.1520113  42.3693833  57.7408903  19.4240113  44.3163833  64.3118903
  18.6430113  44.2573833  63.9288903  19.4960113  43.5643833  64.7488903
  19.3190113  44.1973833  64.3198903  19.8540113  44.0533833  67.7798903
  19.8790113  43.3783833  67.2288903  19.2080113  44.5493833  67.4678903
  19.7630113  44.0263833  67.6528903  29.7490113  41.7663833  66.1758903
  29.0870113  42.0943833  66.6388903  29.9360113  42.4003833  65.6068903
  29.6790113  41.9083833  66.1598903  23.9540113  52.8303833  67.1718903
  23.6770113  52.1893833  66.6488903  23.7460113  53.5563833  66.7338903
  23.8830113  52.8433833  67.0298903  26.3940113  37.6723833  69.6048903
  26.5430113  36.8473833  69.3618903  26.7730113  37.7273833  70.3888903
  26.4720113  37.5583833  69.6848903  27.9420113  39.7353833  59.6868903
  28.4320113  40.4523833  59.6098903  27.1520113  39.9963833  59.4238903
  27.8980113  39.8793833  59.6368903  17.6530113  45.4083833  73.3388903
  17.6160113  45.9093833  72.6248903  17.9840113  44.6563833  73.0438903
  17.6960113  45.3703833  73.1898903  29.2560113  47.6133833  71.5968903
  29.7400113  48.3313833  71.6948903  29.6500113  47.1863833  70.9458903
  29.3860113  47.6563833  71.5148903  23.5520113  50.4583833  72.7738903
  23.9060113  50.2803833  73.5508903  23.1160113  49.7293833  72.5748903
  23.5400113  50.3243833  72.8598903  24.5240113  41.2053833  65.4118903
  25.0040113  41.9043833  65.6198903  24.8970113  40.5583833  65.8628903
  24.6500113  41.2133833  65.5088903  26.7130113  44.3743833  57.6858903
  26.7050113  45.0963833  57.1958903  26.0740113  44.5093833  58.2628903
  26.6180113  44.5013833  57.6988903  31.6850113  48.2443833  61.6668903
  32.0410113  47.8943833  62.3818903  31.6770113  47.5833833  61.0968903
  31.7370113  48.0943833  61.6878903  27.7300113  51.3103833  65.5108903
  27.1270113  51.0143833  64.9538903  28.2750113  51.7623833  65.0018903
  27.7210113  51.3333833  65.3528903  27.7430113  48.1613833  64.9108903
  26.9460113  48.3853833  65.1848903  28.0010113  47.5673833  65.4958903
  27.6630113  48.1063833  65.0378903  21.6350113  52.9733833  59.3588903
  21.4880113  52.1973833  59.7298903  22.3240113  52.8263833  58.8438903
  21.7150113  52.8363833  59.3378903  21.3060113  36.7163833  57.3468903
  21.4030113  36.6093833  58.2078903  20.5980113  37.2223833  57.2818903
  21.2160113  36.7753833  57.4648903  23.9270113  52.4893833  57.7608903
  24.5490113  52.6523833  58.3508903  23.9630113  53.1803833  57.2288903
  24.0240113  52.6153833  57.7698903  31.0030113  46.1593833  69.7568903
  31.0580113  46.2843833  68.8948903  31.7560113  46.4793833  70.0588903
  31.1220113  46.2243833  69.6738903  27.1940113  51.5083833  74.0338903
  27.3580113  51.7913833  74.8428903  27.4570113  52.1693833  73.5288903
  27.2570113  51.6483833  74.0788903  32.0350113  36.4573833  72.7438903
  31.3980113  36.0573833  72.3018903  32.0610113  36.0263833  73.5018903
  31.9450113  36.3353833  72.7898903  18.4280113  45.0233833  58.5898903
  18.7520113  44.2443833  58.3678903  19.0740113  45.3913833  59.0448903
  18.5710113  44.9623833  58.6238903  26.7340113  45.9653833  69.3568903
  26.5790113  46.5753833  69.9608903  27.2680113  45.4073833  69.7628903
  26.7900113  45.9733833  69.5058903  15.4250113  36.6843833  59.5578903
  15.5540113  35.9763833  59.0658903  15.0580113  36.3663833  60.2828903
  15.3900113  36.5323833  59.5928903  25.1180113  44.3653833  60.0148903
  25.1770113  45.0153833  60.5938903  24.9290113  43.6693833  60.5058903
  25.0990113  44.3583833  60.1728903  30.3440113  48.6943833  65.8838903
  29.8650113  48.9923833  65.2178903  29.9880113  47.9183833  66.0618903
  30.2210113  48.6233833  65.8118903  19.6140113  38.8823833  56.5268903
  19.1030113  38.9353833  55.8208903  20.3980113  39.1223833  56.2308903
  19.6540113  38.9253833  56.3788903  24.3410113  46.4123833  64.4458903
  23.4940113  46.2183833  64.5268903  24.6650113  46.2473833  65.2388903
  24.2630113  46.3593833  64.5748903  21.0930113  53.1423833  55.3318903
  21.5320113  52.4453833  55.6198903  21.3000113  53.7663833  55.9048903
  21.1890113  53.1313833  55.4588903  18.1890113  46.1053833  66.7618903
  18.9110113  46.5933833  66.7248903  17.9190113  46.0753833  65.9328903
  18.2560113  46.1733833  66.6338903  21.4190113  41.2763833  63.4968903
  22.2650113  41.0863833  63.5948903  21.0490113  40.4993833  63.3588903
  21.4890113  41.1333833  63.4908903  34.0360113  52.8603833  57.8238903
  34.7300113  52.3933833  57.5758903  33.4970113  52.2623833  58.1608903
  34.0590113  52.7023833  57.8368903  16.2400113  42.6143833  60.1518903
  16.7290113  42.3223833  60.8128903  16.3690113  42.0213833  59.5248903
  16.3310113  42.4833833  60.1568903  31.2750113  45.6363833  67.0028903
  31.2680113  44.8603833  67.4008903  30.4340113  45.8703833  66.9958903
  31.1500113  45.5563833  67.0608903  20.7650113  44.0483833  55.6378903
  20.1550113  43.6433833  56.1118903  20.3790113  44.1663833  54.8648903
  20.6180113  44.0053833  55.5938903  17.5840113  47.1573833  71.0398903
  17.1630113  46.6393833  70.4788903  17.2320113  47.9433833  70.8968903
  17.4700113  47.1973833  70.9358903  32.5310113  45.7073833  64.4398903
  32.2450113  46.1083833  65.1598903  33.3910113  45.6453833  64.5668903
  32.6160113  45.7573833  64.5648903  22.2200113  42.5093833  58.3478903
  22.4920113  43.3353833  58.4148903  21.3570113  42.5843833  58.2518903
  22.1330113  42.6423833  58.3428903  30.1930113  39.6313833  72.9798903
  29.6680113  40.0903833  73.5038903  29.8320113  38.8363833  72.9738903
  30.0620113  39.5813833  73.0558903  15.7000113  38.4793833  64.8838903
  15.7440113  38.8233833  64.0828903  16.4550113  38.7163833  65.2508903
  15.8180113  38.5653833  64.8198903  33.6620113  51.3403833  64.9688903
  33.9520113  51.5973833  64.1878903  34.3570113  51.4363833  65.4878903
  33.8080113  51.3923833  64.9298903  28.6850113  43.2003833  73.0558903
  28.7580113  43.3043833  73.9188903  28.0510113  43.7583833  72.8348903
  28.6020113  43.2983833  73.1508903  30.9530113  43.5193833  71.4208903
  31.2720113  44.3053833  71.6238903  30.5830113  43.2493833  72.1638903
  30.9460113  43.5953833  71.5608903  30.2670113  49.9433833  56.9508903
  30.6010113  49.1373833  56.9858903  29.5120113  49.8713833  57.3808903
  30.2050113  49.8133833  57.0198903  30.7490113  41.7773833  62.6098903
  30.0040113  41.4543833  62.9278903  30.7510113  42.6033833  62.8898903
  30.6390113  41.8513833  62.6978903  33.6510113  44.0613833  74.1558903
  33.5990113  43.7203833  73.3548903  34.3880113  44.5283833  74.1338903
  33.7520113  44.0803833  74.0338903  33.1890113  47.7373833  70.3618903
  33.8170113  47.1883833  70.1058903  33.1280113  48.3023833  69.6998903
  33.2730113  47.7403833  70.2258903  27.6410113  47.8183833  56.3538903
  28.3250113  47.3043833  56.1848903  27.2240113  47.8643833  55.5888903
  27.6800113  47.7493833  56.2158903  22.3230113  48.9683833  67.6578903
  22.0250113  49.5603833  68.2248903  22.3780113  49.4103833  66.9088903
  22.2870113  49.1213833  67.6308903  20.3020113  47.9183833  71.0558903
  19.4960113  47.6283833  71.2228903  20.2130113  48.7863833  71.0618903
  20.1700113  48.0033833  71.0808903  29.6610113  38.1073833  70.0708903
  30.4050113  38.5593833  70.0078903  29.0950113  38.5773833  69.6018903
  29.6880113  38.2443833  69.9928903  24.8390113  45.3913833  67.1488903
  25.3150113  45.7653833  67.7768903  24.0160113  45.5253833  67.4078903
  24.7880113  45.4663833  67.2798903  21.5490113  40.9943833  69.8898903
  21.7100113  40.2503833  70.3168903  21.5040113  40.7453833  69.0548903
  21.5660113  40.8473833  69.8298903  24.1030113  52.7843833  62.3768903
  24.6490113  53.4633833  62.4308903  23.7530113  52.8663833  61.5818903
  24.1320113  52.8973833  62.2668903  30.9460113  36.0873833  67.7408903
  30.6660113  36.9123833  67.6968903  31.6620113  36.1403833  68.2368903
  31.0110113  36.2173833  67.8078903  23.3010113  36.8023833  69.7698903
  24.0060113  37.1223833  69.3678903  23.5420113  35.9953833  69.9968903
  23.4400113  36.7303833  69.7438903  22.2860113  51.0123833  65.7658903
  21.6620113  51.5943833  65.5838903  22.5340113  50.7263833  64.9798903
  22.2300113  51.0563833  65.6228903  26.5950113  47.6463833  72.7548903
  27.3520113  47.9323833  72.4288903  26.0480113  47.6983833  72.0768903
  26.6260113  47.6963833  72.6058903  30.5040113  50.1963833  71.2588903
  30.8500113  50.4663833  72.0128903  30.7980113  50.7783833  70.6788903
  30.5990113  50.3223833  71.2848903  32.3670113  42.3423833  56.5978903
  32.7450113  43.0193833  56.1978903  31.5250113  42.5663833  56.6288903
  32.2980113  42.4753833  56.5428903  23.8800113  45.7883833  55.6808903
  23.0750113  45.6113833  55.3958903  23.8470113  46.6393833  55.8728903
  23.7560113  45.8873833  55.6678903  19.8100113  41.8553833  65.8308903
  20.2500113  41.7523833  65.0848903  20.3550113  41.5423833  66.4358903
  19.9550113  41.7943833  65.8098903  27.8260113  40.9573833  71.4228903
  27.1780113  41.4273833  71.7708903  28.3910113  40.8683833  72.0818903
  27.8140113  41.0133833  71.5718903  27.5140113  42.4943833  67.7208903
  27.8160113  42.9143833  68.4238903  27.5500113  41.6543833  67.9528903
  27.5640113  42.4323833  67.8588903  24.9390113  52.6613833  71.6458903
  25.4170113  52.0613833  71.2298903  24.5880113  52.2183833  72.3108903
  24.9580113  52.5073833  71.6828903  30.0620113  41.9413833  59.9728903
  30.2690113  41.7403833  60.7968903  30.8180113  42.2093833  59.6308903
  30.2040113  41.9513833  60.0438903  31.5270113  45.9683833  59.8268903
  32.0030113  45.2393833  59.7788903  30.7060113  45.6823833  59.7508903
  31.4760113  45.8183833  59.8078903  24.9980113  47.8803833  70.6658903
  24.2030113  47.8163833  71.0168903  25.0690113  48.7273833  70.4708903
  24.8910113  47.9953833  70.6888903  15.9220113  37.2383833  71.9128903
  15.7820113  38.0333833  71.5818903  15.1360113  36.9953833  72.2018903
  15.7850113  37.3203833  71.9068903  20.8280113  54.0873833  65.9828903
  20.8390113  54.1463833  66.8528903  20.4030113  53.3403833  65.8328903
  20.7670113  53.9853833  66.0888903  18.9860113  39.9823833  59.1378903
  19.1120113  39.6533833  58.3398903  18.1740113  39.7333833  59.3368903
  18.8850113  39.8973833  59.0498903  27.7430113  47.1353833  62.1818903
  27.8190113  47.4763833  62.9808903  27.9120113  46.2883833  62.3028903
  27.7790113  47.0603833  62.3178903  25.2650113  46.4093833  61.7468903
  24.9670113  46.0943833  62.5038903  25.9600113  46.8823833  61.9818903
  25.3240113  46.4323833  61.8938903  25.4870113  50.5273833  69.7738903
  26.1740113  50.4133833  70.2988903  25.6210113  51.3183833  69.4298903
  25.6080113  50.6273833  69.8008903  33.6630113  43.1363833  71.5848903
  32.8080113  43.0143833  71.7108903  33.8160113  42.7413833  70.8218903
  33.5590113  43.0593833  71.4908903  28.1760113  43.8013833  70.1608903
  27.9210113  43.0823833  70.5828903  28.9970113  43.9173833  70.4308903
  28.2600113  43.7123833  70.2628903  17.5920113  53.5853833  71.4248903
  16.9380113  53.0163833  71.5228903  17.2170113  54.3583833  71.5758903
  17.4400113  53.6153833  71.4618903  26.1100113  44.9913833  73.3478903
  26.4330113  45.6773833  72.9158903  25.4060113  45.3143833  73.7498903
  26.0530113  45.1403833  73.3428903  29.1940113  53.3653833  64.2768903
  28.7430113  54.0083833  64.6558903  29.9020113  53.2863833  64.7818903
  29.2320113  53.4483833  64.4078903  25.8950113  48.4553833  67.2068903
  25.2010113  48.8573833  67.5498903  26.5720113  48.8883833  67.5458903
  25.8920113  48.5783833  67.3078903  31.2720113  51.0483833  73.7868903
  32.0480113  50.6583833  73.8698903  30.8030113  50.7123833  74.4418903
  31.3170113  50.9413833  73.8958903  18.9630113  41.9933833  69.5538903
  19.3380113  42.6123833  69.0668903  19.6370113  41.5193833  69.8388903
  19.1180113  42.0153833  69.5238903  16.7380113  40.4413833  68.8288903
  16.8150113  40.2723833  67.9758903  17.4840113  40.8473833  69.0258903
  16.8590113  40.4763833  68.7318903  32.2970113  43.0813833  59.2688903
  32.4000113  43.0233833  58.4048903  33.0380113  42.7493833  59.5868903
  32.4220113  43.0243833  59.1878903  19.2920113  37.8513833  71.2398903
  19.2110113  37.0073833  71.4458903  18.9780113  37.8953833  70.4268903
  19.2340113  37.7333833  71.1498903  26.2170113  50.0463833  60.3758903
  26.0120113  50.8793833  60.2168903  25.4420113  49.6643833  60.4978903
  26.0720113  50.1133833  60.3708903  31.3990113  43.2273833  68.6248903
  31.3970113  42.3643833  68.7488903  31.4660113  43.5513833  69.4318903
  31.4090113  43.1473833  68.7618903  16.1350113  45.6673833  69.0528903
  16.4550113  45.8863833  68.2718903  16.0350113  44.8023833  68.9978903
  16.1670113  45.5723833  68.9298903  17.5910113  41.6033833  55.6708903
  16.9190113  41.6173833  56.2268903  17.6860113  40.7553833  55.4868903
  17.5060113  41.4803833  55.7258903  26.2720113  38.2173833  63.2608903
  25.5720113  38.7353833  63.2048903  26.3100113  37.8373833  62.4768903
  26.1740113  38.2383833  63.1368903  21.5790113  50.3083833  56.7848903
  22.0200113  50.3883833  57.5328903  20.7740113  50.0923833  57.0428903
  21.5250113  50.2883833  56.9338903  29.8700113  38.7333833  66.0608903
  30.7250113  38.8323833  66.2058903  29.5010113  39.2863833  66.6258903
  29.9420113  38.8303833  66.1658903  20.8980113  44.9593833  70.4378903
  20.5020113  45.7333833  70.5128903  20.4920113  44.5863833  69.7618903
  20.7800113  45.0183833  70.3488903  30.1740113  44.0133833  64.5518903
  30.8400113  44.5543833  64.7118903  29.8290113  44.3243833  63.8128903
  30.2210113  44.1393833  64.4668903  30.4870113  52.0793833  60.3588903
  30.3130113  51.4253833  60.9088903  31.2000113  51.8083833  59.9358903
  30.5670113  51.9423833  60.3778903  18.9080113  49.3783833  57.3858903
  18.6640113  49.0713833  58.1658903  18.8750113  48.6753833  56.8698903
  18.8670113  49.2293833  57.4248903  21.7270113  47.6233833  56.1288903
  20.9090113  47.3553833  56.2688903  21.6990113  48.4753833  56.3138903
  21.6020113  47.7103833  56.1768903  21.3270113  37.9363833  67.8878903
  20.4630113  38.0203833  67.9678903  21.5470113  37.4223833  68.5568903
  21.2320113  37.8733833  67.9988903  33.3450113  36.5713833  69.2168903
  33.2930113  36.5273833  70.0868903  34.0320113  36.0683833  69.0268903
  33.4390113  36.4913833  69.3168903  25.4300113  38.6843833  66.2618903
  24.6930113  38.2303833  66.3748903  26.0010113  38.2823833  66.7848903
  25.4050113  38.5573833  66.3558903  28.1620113  49.5323833  68.0498903
  28.3680113  49.8333833  68.8418903  28.1010113  50.2543833  67.5648903
  28.1830113  49.6833833  68.0948903  27.6960113  53.7463833  72.2958903
  26.9430113  53.7283833  71.8548903  27.8640113  54.5983833  72.3798903
  27.6100113  53.8693833  72.2428903  22.9330113  43.0133833  71.4658903
  22.6110113  42.4373833  70.8958903  22.5740113  43.7683833  71.2198903
  22.8330113  43.0393833  71.3458903  23.7290113  36.2653833  56.0928903
  23.8070113  36.5123833  55.2598903  22.9860113  36.6423833  56.3508903
  23.6310113  36.3573833  56.0078903  32.9740113  48.1713833  67.5078903
  32.9420113  47.3093833  67.3728903  32.2810113  48.4733833  67.0738903
  32.8670113  48.0883833  67.4238903  21.3680113  53.3693833  71.7138903
  21.4090113  53.4953833  72.5768903  22.0190113  52.8093833  71.5578903
  21.4700113  53.3053833  71.8188903  31.0790113  51.4313833  66.3048903
  31.6060113  51.3483833  65.6138903  30.6880113  50.6533833  66.3588903
  31.0990113  51.3043833  66.2108903  18.5470113  38.0193833  68.5358903
  18.2040113  37.2523833  68.3018903  17.8520113  38.5433833  68.5998903
  18.3940113  37.9833833  68.5108903  27.5930113  36.8753833  65.5128903
  28.2630113  37.4193833  65.6398903  27.0900113  37.2993833  64.9398903
  27.6180113  37.0183833  65.4468903  18.9610113  51.7523833  73.0738903
  19.5560113  52.1833833  73.5458903  18.5970113  52.3763833  72.5848903
  18.9950113  51.9083833  73.0708903  26.9520113  42.6833833  63.0058903
  27.5030113  42.0763833  63.3058903  26.5270113  42.9463833  63.7208903
  26.9710113  42.6323833  63.1548903  17.2000113  41.3333833  62.4918903
  16.8320113  41.6353833  63.2228903  17.7340113  40.7043833  62.7758903
  17.2240113  41.2853833  62.6418903  16.8880113  49.7413833  70.0028903
  16.3140113  50.1573833  70.5118903  17.6210113  50.2063833  70.0978903
  16.9120113  49.8713833  70.0918903  28.9220113  44.5143833  59.5678903
  28.9900113  43.6643833  59.7488903  28.0990113  44.6003833  59.2898903
  28.8100113  44.4013833  59.5538903  18.6740113  53.0083833  58.7778903
  18.5290113  53.1643833  57.9318903  19.5400113  53.0873833  58.8558903
  18.7810113  53.0433833  58.6648903  22.8410113  45.4053833  58.5058903
  22.9410113  45.5443833  57.6508903  23.6590113  45.3453833  58.8018903
  22.9760113  45.4163833  58.4228903  32.0010113  53.4693833  55.9858903
  32.6380113  53.3353833  56.5668903  31.6600113  52.6753833  55.8688903
  32.0450113  53.3323833  56.0538903  32.1960113  45.8873833  72.7188903
  32.8300113  45.7173833  73.2928903  32.6130113  46.2903833  72.0668903
  32.3510113  45.9223833  72.7078903  28.0760113  49.7343833  58.3078903
  27.8250113  49.6063833  59.1338903  27.7590113  49.0393833  57.8868903
  27.9920113  49.6133833  58.3678903  32.8210113  40.4513833  73.4568903
  32.6250113  41.0953833  74.0118903  32.0990113  39.9613833  73.4488903
  32.6860113  40.4743833  73.5378903  32.7200113  41.3923833  66.4278903
  31.8870113  41.6423833  66.3558903  32.6640113  40.5523833  66.6568903
  32.5890113  41.3053833  66.4508903  21.9800113  38.3803833  71.6218903
  22.2140113  37.8043833  71.0088903  21.1380113  38.1993833  71.7628903
  21.8900113  38.2683833  71.5518903  29.6070113  45.9983833  74.0738903
  30.4780113  45.9623833  74.0378903  29.3880113  46.4183833  73.3418903
  29.7040113  46.0543833  73.9608903  19.3610113  51.8233833  65.2548903
  19.2820113  51.0133833  64.9388903  18.9170113  52.3103833  64.6828903
  19.2840113  51.7753833  65.1238903  24.9620113  47.9423833  57.7378903
  25.6790113  47.5953833  57.3818903  24.9280113  48.7423833  57.3898903
  25.0630113  48.0093833  57.6338903  16.9330113  54.0673833  68.8358903
  17.4260113  54.0113833  69.5538903  17.1210113  53.3343833  68.4008903
  17.0340113  53.9503833  68.8778903  16.0490113  47.6393833  42.1036493
  15.6080113  47.7573833  42.8466493  15.7660113  46.8643833  41.8186493
  15.9420113  47.5423833  42.1716493  32.3240113  50.9403833  39.6186493
  33.0250113  50.4213833  39.6146493  31.7370113  50.4953833  39.1496493
  32.3410113  50.7973833  39.5486493  15.7920113  41.4313833  38.6106493
  15.0140113  41.5933833  38.2506493  15.8310113  40.5603833  38.6326493
  15.6830113  41.3263833  38.5606493  18.9310113  46.6943833  37.2826493
  18.5390113  46.3233833  36.5966493  18.8510113  46.0963833  37.9116493
  18.8610113  46.5513833  37.2736493  18.5580113  48.3353833  41.1826493
  19.1660113  48.1653833  41.7856493  17.8070113  48.1953833  41.6036493
  18.5370113  48.2893833  41.3336493  22.8400113  37.6703833  41.1316493
  22.7700113  38.3473833  40.5856493  23.5810113  37.2823833  40.8826493
  22.9390113  37.7133833  41.0136493  17.4490113  51.4263833  37.2596493
  17.9160113  51.5103833  36.5276493  17.9040113  50.8483833  37.7286493
  17.5850113  51.3533833  37.2206493  15.9890113  50.3743833  48.3586493
  16.1180113  50.0943833  49.1746493  15.3790113  49.8333833  48.0496493
  15.9180113  50.2533833  48.4336493  22.5630113  47.8993833  53.4256493
  22.3270113  47.8963833  54.2656493  21.8150113  47.7513833  53.0016493
  22.4170113  47.8763833  53.4866493  17.4350113  44.8953833  42.5606493
  16.9730113  44.5033833  41.9336493  18.1350113  44.3823833  42.6526493
  17.4700113  44.7623833  42.4816493  19.4360113  42.9953833  42.5836493
  20.2530113  42.8083833  42.8266493  18.9590113  42.3813833  42.9796493
  19.4860113  42.8773833  42.6786493  20.0330113  38.0893833  41.8496493
  19.7370113  38.5903833  41.1996493  20.9000113  38.1673833  41.7926493
  20.1170113  38.1753833  41.7456493  23.0120113  37.2313833  44.0726493
  23.0850113  38.0913833  44.2016493  22.9740113  37.1563833  43.2046493
  23.0170113  37.3473833  43.9636493  27.6850113  40.1573833  36.3716493
  27.2350113  40.8383833  36.6786493  27.7990113  39.6533833  37.0746493
  27.6360113  40.1833833  36.5206493  15.8910113  42.6563833  45.5736493
  15.6350113  43.4873833  45.4986493  15.2270113  42.2733833  45.9906493
  15.7550113  42.7223833  45.6246493  15.8010113  52.3663833  43.4736493
  15.2090113  52.9243833  43.1606493  16.2270113  52.0973833  42.7616493
  15.7770113  52.4083833  43.3226493  21.6410113  50.2103833  40.9536493
  21.0620113  49.9353833  41.5456493  22.2650113  49.6013833  40.9786493
  21.6480113  50.0803833  41.0446493  27.7840113  52.4983833  38.4756493
  28.5110113  52.9703833  38.5776493  28.0130113  51.7043833  38.7556493
  27.9260113  52.4513833  38.5326493  25.9520113  52.8903833  40.4656493
  26.1660113  53.4173833  41.1276493  26.7190113  52.7163833  40.0866493
  26.0970113  52.9423833  40.5076493  18.9200113  37.4733833  46.0646493
  18.3990113  36.8453833  45.7566493  19.5110113  37.0363833  46.5356493
  18.9310113  37.3153833  46.0886493  22.2260113  39.6063833  55.3626493
  22.3430113  39.1523833  54.6266493  22.5140113  40.4043833  55.1596493
  22.2860113  39.6573833  55.2236493  17.3460113  51.0363833  41.4046493
  18.0020113  50.4613833  41.4196493  17.7350113  51.7853833  41.1836493
  17.5010113  51.0613833  41.3746493  28.3910113  52.9003833  48.7706493
  29.1350113  53.3563833  48.7606493  28.2700113  52.6863833  47.9336493
  28.4830113  52.9363833  48.6456493  17.9590113  39.2033833  54.3466493
  17.1810113  38.8133833  54.2746493  18.4500113  38.7913833  53.7556493
  17.9160113  39.0843833  54.2486493  18.1640113  49.5233833  44.9046493
  18.5870113  49.1673833  44.2306493  18.4880113  49.1013833  45.5966493
  18.2740113  49.4083833  44.9076493  21.3950113  52.3753833  44.2006493
  22.2390113  52.4793833  44.0056493  21.0980113  53.1933833  44.2686493
  21.4760113  52.5113833  44.1816493  25.9240113  42.1113833  37.4086493
  26.2050113  42.8993833  37.6576493  25.1480113  42.2763833  37.0456493
  25.8510113  42.2523833  37.3916493  29.9650113  54.0853833  38.8756493
  30.6300113  53.9373833  38.3306493  30.3250113  54.0023833  39.6656493
  30.1170113  54.0513833  38.9116493  20.3930113  53.5943833  49.9406493
  20.6850113  53.5273833  50.7606493  19.7670113  52.9893833  49.8956493
  20.3440113  53.4953833  50.0556493  15.3070113  39.7513833  51.9326493
  15.3030113  40.3383833  52.5786493  15.9010113  40.0633833  51.3756493
  15.3940113  39.8843833  51.9456493  27.6450113  50.0853833  52.4746493
  27.6110113  50.4673833  53.2586493  28.4990113  50.0433833  52.3036493
  27.7660113  50.1353833  52.5656493  24.7830113  50.2823833  37.2246493
  24.6020113  50.8273833  37.8816493  25.5490113  50.5723833  36.9236493
  24.8690113  50.4063833  37.2776493  16.2440113  39.3463833  40.8476493
  16.1300113  38.4823833  40.8786493  15.7690113  39.6403833  41.5176493
  16.1570113  39.2623833  40.9506493  18.3860113  51.7563833  49.0626493
  17.6880113  51.2483833  49.1886493  18.6460113  51.5513833  48.2546493
  18.3210113  51.6513833  48.9616493  25.5480113  40.5543833  39.5926493
  25.0400113  39.8923833  39.3386493  25.6000113  41.0583833  38.8826493
  25.4810113  40.5313833  39.4506493  26.0970113  53.2493833  49.9726493
  26.8650113  53.1693833  49.5666493  25.5140113  53.1283833  49.3346493
  26.1240113  53.2193833  49.8186493  32.3740113  53.8523833  42.8736493
  31.9190113  54.5693833  43.0746493  31.7600113  53.2813833  42.6316493
  32.2160113  53.8743833  42.8676493  24.1460113  39.8623833  44.0056493
  24.2200113  40.4303833  43.3476493  24.2670113  40.3543833  44.7156493
  24.1740113  40.0193833  44.0136493  19.7470113  50.6073833  51.6296493
  20.5880113  50.6703833  51.4076493  19.7100113  51.0043833  52.4056493
  19.8660113  50.6753833  51.7116493  18.7540113  35.6853833  42.3536493
  19.2900113  36.3733833  42.3436493  18.7570113  35.4113833  41.5256493
  18.8330113  35.7463833  42.2296493  22.4600113  46.0563833  48.9686493
  22.5130113  46.9033833  49.1706493  22.1750113  45.6863833  49.7056493
  22.4260113  46.1263833  49.1066493  15.2810113  50.4273833  55.1796493
  16.0370113  50.7763833  55.4376493  15.4580113  49.5743833  55.1226493
  15.4190113  50.3523833  55.2096493  19.2020113  39.4953833  44.0076493
  19.4740113  39.0653833  43.2996493  19.0260113  38.8593833  44.5786493
  19.2160113  39.3383833  43.9876493  31.8900113  47.1903833  38.2256493
  32.0090113  46.9033833  39.0406493  32.6970113  47.2113833  37.8956493
  32.0260113  47.1513833  38.2976493  19.0260113  46.9223833  43.5566493
  19.8770113  46.8423833  43.3836493  18.6690113  46.2403833  43.1446493
  19.0990113  46.8093833  43.4696493  17.7930113  53.6473833  44.7936493
  17.1200113  53.1493833  44.5486493  18.1960113  53.8323833  44.0426493
  17.7530113  53.6013833  44.6466493  17.3430113  40.5973833  47.0896493
  18.1860113  40.8173833  47.0466493  16.9540113  41.1703833  46.5586493
  17.4100113  40.7143833  47.0046493  34.1240113  51.6993833  52.4796493
  33.4420113  52.0093833  52.0326493  33.7550113  51.2413833  53.1246493
  33.9680113  51.6773833  52.5086493  21.3940113  46.9293833  41.7916493
  22.1070113  47.4243833  41.8816493  21.6160113  46.3623833  41.1656493
  21.5320113  46.9183833  41.7126493  15.5500113  48.5723833  45.1116493
  14.8830113  49.0603833  45.3876493  16.2300113  49.1173833  45.1406493
  15.5520113  48.7243833  45.1566493  23.1970113  42.2823833  55.2076493
  22.7130113  42.8593833  55.6496493  23.1690113  42.5773833  54.3866493
  23.1210113  42.4113833  55.1516493  15.6160113  45.2563833  40.2146493
  15.4310113  44.4173833  40.3666493  16.2750113  45.2203833  39.6446493
  15.6860113  45.1273833  40.1526493  15.7880113  49.4203833  39.7896493
  16.3400113  49.9893833  40.1536493  15.5560113  48.9053833  40.4546493
  15.8350113  49.4283833  39.9416493  19.9920113  48.4203833  46.8786493
  20.4590113  48.7093833  47.5566493  20.5640113  47.9423833  46.4246493
  20.1460113  48.3923833  46.9116493  15.6180113  47.8693833  37.4176493
  16.3740113  47.4373833  37.4756493  15.6330113  48.4013833  38.1086493
  15.7320113  47.8843833  37.5286493  16.5580113  46.0903833  45.4226493
  16.9890113  45.9613833  44.6756493  16.3530113  46.9383833  45.3966493
  16.5910113  46.1963833  45.3086493  22.9040113  39.6543833  39.0726493
  22.9020113  39.5373833  38.2076493  22.7230113  40.5023833  39.1646493
  22.8770113  39.7623833  38.9586493  31.9580113  52.0813833  50.5696493
  31.2870113  52.5953833  50.7876493  32.0210113  52.1813833  49.7056493
  31.8680113  52.1723833  50.4746493  20.6420113  49.6063833  43.7046493
  20.7680113  50.4493833  43.8916493  21.3100113  49.2073833  44.1006493
  20.7600113  49.6723833  43.7906493  18.7720113  43.0893833  53.5666493
  18.2360113  42.5833833  54.0346493  18.7920113  42.6993833  52.7866493
  18.6950113  42.9563833  53.5206493  19.2570113  42.4863833  38.7066493
  19.1290113  42.0383833  39.4446493  18.6750113  42.1443833  38.1546493
  19.1520113  42.3693833  38.7346493  19.4240113  44.3163833  45.3056493
  18.6430113  44.2573833  44.9226493  19.4960113  43.5643833  45.7426493
  19.3190113  44.1973833  45.3136493  19.8540113  44.0533833  48.7736493
  19.8790113  43.3783833  48.2226493  19.2080113  44.5493833  48.4616493
  19.7630113  44.0263833  48.6466493  23.9540113  52.8303833  48.1656493
  23.6770113  52.1893833  47.6426493  23.7460113  53.5563833  47.7276493
  23.8830113  52.8433833  48.0236493  29.2560113  47.6133833  52.5906493
  29.7400113  48.3313833  52.6886493  29.6500113  47.1863833  51.9396493
  29.3860113  47.6563833  52.5086493  23.5520113  50.4583833  53.7676493
  23.9060113  50.2803833  54.5446493  23.1160113  49.7293833  53.5686493
  23.5400113  50.3243833  53.8536493  26.7130113  44.3743833  38.6796493
  26.7050113  45.0963833  38.1896493  26.0740113  44.5093833  39.2566493
  26.6180113  44.5013833  38.6926493  21.6350113  52.9733833  40.3526493
  21.4880113  52.1973833  40.7236493  22.3240113  52.8263833  39.8376493
  21.7150113  52.8363833  40.3316493  21.3060113  36.7163833  38.3406493
  21.4030113  36.6093833  39.2016493  20.5980113  37.2223833  38.2756493
  21.2160113  36.7753833  38.4586493  23.9270113  52.4893833  38.7546493
  24.5490113  52.6523833  39.3446493  23.9630113  53.1803833  38.2226493
  24.0240113  52.6153833  38.7636493  27.1940113  51.5083833  55.0276493
  27.3580113  51.7913833  55.8366493  27.4570113  52.1693833  54.5226493
  27.2570113  51.6483833  55.0726493  18.4280113  45.0233833  39.5836493
  18.7520113  44.2443833  39.3616493  19.0740113  45.3913833  40.0386493
  18.5710113  44.9623833  39.6176493  15.4250113  36.6843833  40.5516493
  15.5540113  35.9763833  40.0596493  15.0580113  36.3663833  41.2766493
  15.3900113  36.5323833  40.5866493  19.6140113  38.8823833  37.5206493
  19.1030113  38.9353833  36.8146493  20.3980113  39.1223833  37.2246493
  19.6540113  38.9253833  37.3726493  18.1890113  46.1053833  47.7556493
  18.9110113  46.5933833  47.7186493  17.9190113  46.0753833  46.9266493
  18.2560113  46.1733833  47.6276493  21.4190113  41.2763833  44.4906493
  22.2650113  41.0863833  44.5886493  21.0490113  40.4993833  44.3526493
  21.4890113  41.1333833  44.4846493  34.0360113  52.8603833  38.8176493
  34.7300113  52.3933833  38.5696493  33.4970113  52.2623833  39.1546493
  34.0590113  52.7023833  38.8306493  16.2400113  42.6143833  41.1456493
  16.7290113  42.3223833  41.8066493  16.3690113  42.0213833  40.5186493
  16.3310113  42.4833833  41.1506493  20.7650113  44.0483833  36.6316493
  20.1550113  43.6433833  37.1056493  20.3790113  44.1663833  35.8586493
  20.6180113  44.0053833  36.5876493  17.5840113  47.1573833  52.0336493
  17.1630113  46.6393833  51.4726493  17.2320113  47.9433833  51.8906493
  17.4700113  47.1973833  51.9296493  22.2200113  42.5093833  39.3416493
  22.4920113  43.3353833  39.4086493  21.3570113  42.5843833  39.2456493
  22.1330113  42.6423833  39.3366493  15.7000113  38.4793833  45.8776493
  15.7440113  38.8233833  45.0766493  16.4550113  38.7163833  46.2446493
  15.8180113  38.5653833  45.8136493  33.6620113  51.3403833  45.9626493
  33.9520113  51.5973833  45.1816493  34.3570113  51.4363833  46.4816493
  33.8080113  51.3923833  45.9236493  30.2670113  49.9433833  37.9446493
  30.6010113  49.1373833  37.9796493  29.5120113  49.8713833  38.3746493
  30.2050113  49.8133833  38.0136493  33.6510113  44.0613833  55.1496493
  33.5990113  43.7203833  54.3486493  34.3880113  44.5283833  55.1276493
  33.7520113  44.0803833  55.0276493  33.1890113  47.7373833  51.3556493
  33.8170113  47.1883833  51.0996493  33.1280113  48.3023833  50.6936493
  33.2730113  47.7403833  51.2196493  27.6410113  47.8183833  37.3476493
  28.3250113  47.3043833  37.1786493  27.2240113  47.8643833  36.5826493
  27.6800113  47.7493833  37.2096493  22.3230113  48.9683833  48.6516493
  22.0250113  49.5603833  49.2186493  22.3780113  49.4103833  47.9026493
  22.2870113  49.1213833  48.6246493  20.3020113  47.9183833  52.0496493
  19.4960113  47.6283833  52.2166493  20.2130113  48.7863833  52.0556493
  20.1700113  48.0033833  52.0746493  24.1030113  52.7843833  43.3706493
  24.6490113  53.4633833  43.4246493  23.7530113  52.8663833  42.5756493
  24.1320113  52.8973833  43.2606493  22.2860113  51.0123833  46.7596493
  21.6620113  51.5943833  46.5776493  22.5340113  50.7263833  45.9736493
  22.2300113  51.0563833  46.6166493  26.5950113  47.6463833  53.7486493
  27.3520113  47.9323833  53.4226493  26.0480113  47.6983833  53.0706493
  26.6260113  47.6963833  53.5996493  30.5040113  50.1963833  52.2526493
  30.8500113  50.4663833  53.0066493  30.7980113  50.7783833  51.6726493
  30.5990113  50.3223833  52.2786493  23.8800113  45.7883833  36.6746493
  23.0750113  45.6113833  36.3896493  23.8470113  46.6393833  36.8666493
  23.7560113  45.8873833  36.6616493  19.8100113  41.8553833  46.8246493
  20.2500113  41.7523833  46.0786493  20.3550113  41.5423833  47.4296493
  19.9550113  41.7943833  46.8036493  24.9390113  52.6613833  52.6396493
  25.4170113  52.0613833  52.2236493  24.5880113  52.2183833  53.3046493
  24.9580113  52.5073833  52.6766493  23.3570113  36.8403833  46.8716493
  22.5310113  36.6913833  47.1086493  23.3170113  36.8753833  46.0006493
  23.2290113  36.8233833  46.7776493  24.9980113  47.8803833  51.6596493
  24.2030113  47.8163833  52.0106493  25.0690113  48.7273833  51.4646493
  24.8910113  47.9953833  51.6826493  15.9220113  37.2383833  52.9066493
  15.7820113  38.0333833  52.5756493  15.1360113  36.9953833  53.1956493
  15.7850113  37.3203833  52.9006493  20.8280113  54.0873833  46.9766493
  20.8390113  54.1463833  47.8466493  20.4030113  53.3403833  46.8266493
  20.7670113  53.9853833  47.0826493  18.9860113  39.9823833  40.1316493
  19.1120113  39.6533833  39.3336493  18.1740113  39.7333833  40.3306493
  18.8850113  39.8973833  40.0436493  25.4870113  50.5273833  50.7676493
  26.1740113  50.4133833  51.2926493  25.6210113  51.3183833  50.4236493
  25.6080113  50.6273833  50.7946493  33.6630113  43.1363833  52.5786493
  32.8080113  43.0143833  52.7046493  33.8160113  42.7413833  51.8156493
  33.5590113  43.0593833  52.4846493  17.5920113  53.5853833  52.4186493
  16.9380113  53.0163833  52.5166493  17.2170113  54.3583833  52.5696493
  17.4400113  53.6153833  52.4556493  26.1100113  44.9913833  54.3416493
  26.4330113  45.6773833  53.9096493  25.4060113  45.3143833  54.7436493
  26.0530113  45.1403833  54.3366493  29.1940113  53.3653833  45.2706493
  28.7430113  54.0083833  45.6496493  29.9020113  53.2863833  45.7756493
  29.2320113  53.4483833  45.4016493  31.2720113  51.0483833  54.7806493
  32.0480113  50.6583833  54.8636493  30.8030113  50.7123833  55.4356493
  31.3170113  50.9413833  54.8896493  18.9630113  41.9933833  50.5476493
  19.3380113  42.6123833  50.0606493  19.6370113  41.5193833  50.8326493
  19.1180113  42.0153833  50.5176493  16.7380113  40.4413833  49.8226493
  16.8150113  40.2723833  48.9696493  17.4840113  40.8473833  50.0196493
  16.8590113  40.4763833  49.7256493  19.2920113  37.8513833  52.2336493
  19.2110113  37.0073833  52.4396493  18.9780113  37.8953833  51.4206493
  19.2340113  37.7333833  52.1436493  26.2170113  50.0463833  41.3696493
  26.0120113  50.8793833  41.2106493  25.4420113  49.6643833  41.4916493
  26.0720113  50.1133833  41.3646493  16.1350113  45.6673833  50.0466493
  16.4550113  45.8863833  49.2656493  16.0350113  44.8023833  49.9916493
  16.1670113  45.5723833  49.9236493  17.5910113  41.6033833  36.6646493
  16.9190113  41.6173833  37.2206493  17.6860113  40.7553833  36.4806493
  17.5060113  41.4803833  36.7196493  21.5790113  50.3083833  37.7786493
  22.0200113  50.3883833  38.5266493  20.7740113  50.0923833  38.0366493
  21.5250113  50.2883833  37.9276493  20.8980113  44.9593833  51.4316493
  20.5020113  45.7333833  51.5066493  20.4920113  44.5863833  50.7556493
  20.7800113  45.0183833  51.3426493  30.4870113  52.0793833  41.3526493
  30.3130113  51.4253833  41.9026493  31.2000113  51.8083833  40.9296493
  30.5670113  51.9423833  41.3716493  18.9080113  49.3783833  38.3796493
  18.6640113  49.0713833  39.1596493  18.8750113  48.6753833  37.8636493
  18.8670113  49.2293833  38.4186493  21.7270113  47.6233833  37.1226493
  20.9090113  47.3553833  37.2626493  21.6990113  48.4753833  37.3076493
  21.6020113  47.7103833  37.1706493  28.1620113  49.5323833  49.0436493
  28.3680113  49.8333833  49.8356493  28.1010113  50.2543833  48.5586493
  28.1830113  49.6833833  49.0886493  27.6960113  53.7463833  53.2896493
  26.9430113  53.7283833  52.8486493  27.8640113  54.5983833  53.3736493
  27.6100113  53.8693833  53.2366493  23.7290113  36.2653833  37.0866493
  23.8070113  36.5123833  36.2536493  22.9860113  36.6423833  37.3446493
  23.6310113  36.3573833  37.0016493  32.9740113  48.1713833  48.5016493
  32.9420113  47.3093833  48.3666493  32.2810113  48.4733833  48.0676493
  32.8670113  48.0883833  48.4176493  21.3680113  53.3693833  52.7076493
  21.4090113  53.4953833  53.5706493  22.0190113  52.8093833  52.5516493
  21.4700113  53.3053833  52.8126493  31.0790113  51.4313833  47.2986493
  31.6060113  51.3483833  46.6076493  30.6880113  50.6533833  47.3526493
  31.0990113  51.3043833  47.2046493  18.5470113  38.0193833  49.5296493
  18.2040113  37.2523833  49.2956493  17.8520113  38.5433833  49.5936493
  18.3940113  37.9833833  49.5046493  18.9610113  51.7523833  54.0676493
  19.5560113  52.1833833  54.5396493  18.5970113  52.3763833  53.5786493
  18.9950113  51.9083833  54.0646493  17.2000113  41.3333833  43.4856493
  16.8320113  41.6353833  44.2166493  17.7340113  40.7043833  43.7696493
  17.2240113  41.2853833  43.6356493  16.8880113  49.7413833  50.9966493
  16.3140113  50.1573833  51.5056493  17.6210113  50.2063833  51.0916493
  16.9120113  49.8713833  51.0856493  18.6740113  53.0083833  39.7716493
  18.5290113  53.1643833  38.9256493  19.5400113  53.0873833  39.8496493
  18.7810113  53.0433833  39.6586493  22.8410113  45.4053833  39.4996493
  22.9410113  45.5443833  38.6446493  23.6590113  45.3453833  39.7956493
  22.9760113  45.4163833  39.4166493  32.0010113  53.4693833  36.9796493
  32.6380113  53.3353833  37.5606493  31.6600113  52.6753833  36.8626493
  32.0450113  53.3323833  37.0476493  32.1960113  45.8873833  53.7126493
  32.8300113  45.7173833  54.2866493  32.6130113  46.2903833  53.0606493
  32.3510113  45.9223833  53.7016493  28.0760113  49.7343833  39.3016493
  27.8250113  49.6063833  40.1276493  27.7590113  49.0393833  38.8806493
  27.9920113  49.6133833  39.3616493  29.6070113  45.9983833  55.0676493
  30.4780113  45.9623833  55.0316493  29.3880113  46.4183833  54.3356493
  29.7040113  46.0543833  54.9546493  19.3610113  51.8233833  46.2486493
  19.2820113  51.0133833  45.9326493  18.9170113  52.3103833  45.6766493
  19.2840113  51.7753833  46.1176493  24.9620113  47.9423833  38.7316493
  25.6790113  47.5953833  38.3756493  24.9280113  48.7423833  38.3836493
  25.0630113  48.0093833  38.6276493  16.9330113  54.0673833  49.8296493
  17.4260113  54.0113833  50.5476493  17.1210113  53.3343833  49.3946493
  17.0340113  53.9503833  49.8716493  26.3710113  36.5833833  22.9704083
  26.1260113  37.0713833  22.2904083  27.2340113  36.5103833  22.8704083
  26.4620113  36.6443833  22.8554083  26.1800113  43.4993833  27.6414083
  25.6560113  44.0953833  28.0044083  26.5770113  43.1313833  28.3254083
  26.1610113  43.5333833  27.7964083  16.0490113  47.6393833  23.0974083
  15.6080113  47.7573833  23.8404083  15.7660113  46.8643833  22.8124083
  15.9420113  47.5423833  23.1654083  32.3240113  50.9403833  20.6124083
  33.0250113  50.4213833  20.6084083  31.7370113  50.4953833  20.1434083
  32.3410113  50.7973833  20.5424083  15.7920113  41.4313833  19.6044083
  15.0140113  41.5933833  19.2444083  15.8310113  40.5603833  19.6264083
  15.6830113  41.3263833  19.5544083  18.9310113  46.6943833  18.2764083
  18.5390113  46.3233833  17.5904083  18.8510113  46.0963833  18.9054083
  18.8610113  46.5513833  18.2674083  28.8510113  44.5663833  24.3174083
  28.9310113  44.5703833  23.4484083  28.2670113  43.9343833  24.4664083
  28.7760113  44.4733833  24.2114083  18.5580113  48.3353833  22.1764083
  19.1660113  48.1653833  22.7794083  17.8070113  48.1953833  22.5974083
  18.5370113  48.2893833  22.3274083  22.8400113  37.6703833  22.1254083
  22.7700113  38.3473833  21.5794083  23.5810113  37.2823833  21.8764083
  22.9390113  37.7133833  22.0074083  17.4490113  51.4263833  18.2534083
  17.9160113  51.5103833  17.5214083  17.9040113  50.8483833  18.7224083
  17.5850113  51.3533833  18.2144083  15.9890113  50.3743833  29.3524083
  16.1180113  50.0943833  30.1684083  15.3790113  49.8333833  29.0434083
  15.9180113  50.2533833  29.4274083  22.5630113  47.8993833  34.4194083
  22.3270113  47.8963833  35.2594083  21.8150113  47.7513833  33.9954083
  22.4170113  47.8763833  34.4804083  17.4350113  44.8953833  23.5544083
  16.9730113  44.5033833  22.9274083  18.1350113  44.3823833  23.6464083
  17.4700113  44.7623833  23.4754083  21.9430113  40.5053833  28.9014083
  22.6210113  40.5233833  28.3524083  21.8980113  39.6693833  29.1464083
  22.0360113  40.3843833  28.8564083  22.5450113  51.0913833  31.6824083
  22.6830113  51.8513833  31.2754083  23.3360113  50.7263833  31.7094083
  22.6820113  51.1503833  31.6264083  19.4360113  42.9953833  23.5774083
  20.2530113  42.8083833  23.8204083  18.9590113  42.3813833  23.9734083
  19.4860113  42.8773833  23.6724083  23.6400113  48.9763833  26.1874083
  23.9880113  48.1773833  26.2174083  24.3050113  49.4803833  25.9324083
  23.7900113  48.9323833  26.1544083  23.6970113  48.4253833  22.3984083
  24.0280113  47.7813833  22.8844083  23.9370113  48.2143833  21.5874083
  23.7810113  48.2993833  22.3504083  25.6650113  42.5563833  33.7374083
  24.8170113  42.4573833  33.5594083  25.6940113  43.3013833  34.1914083
  25.5440113  42.6523833  33.7784083  20.0330113  38.0893833  22.8434083
  19.7370113  38.5903833  22.1934083  20.9000113  38.1673833  22.7864083
  20.1170113  38.1753833  22.7394083  30.2230113  35.5163833  32.8514083
  30.0650113  36.2853833  32.4694083  29.4510113  35.2963833  33.1954083
  30.0850113  35.5973833  32.8464083  23.0120113  37.2313833  25.0664083
  23.0850113  38.0913833  25.1954083  22.9740113  37.1563833  24.1984083
  23.0170113  37.3473833  24.9574083  27.6850113  40.1573833  17.3654083
  27.2350113  40.8383833  17.6724083  27.7990113  39.6533833  18.0684083
  27.6360113  40.1833833  17.5144083  15.8910113  42.6563833  26.5674083
  15.6350113  43.4873833  26.4924083  15.2270113  42.2733833  26.9844083
  15.7550113  42.7223833  26.6184083  15.8010113  52.3663833  24.4674083
  15.2090113  52.9243833  24.1544083  16.2270113  52.0973833  23.7554083
  15.7770113  52.4083833  24.3164083  21.6410113  50.2103833  21.9474083
  21.0620113  49.9353833  22.5394083  22.2650113  49.6013833  21.9724083
  21.6480113  50.0803833  22.0384083  27.7840113  52.4983833  19.4694083
  28.5110113  52.9703833  19.5714083  28.0130113  51.7043833  19.7494083
  27.9260113  52.4513833  19.5264083  25.9520113  52.8903833  21.4594083
  26.1660113  53.4173833  22.1214083  26.7190113  52.7163833  21.0804083
  26.0970113  52.9423833  21.5014083  18.9200113  37.4733833  27.0584083
  18.3990113  36.8453833  26.7504083  19.5110113  37.0363833  27.5294083
  18.9310113  37.3153833  27.0824083  22.2260113  39.6063833  36.3564083
  22.3430113  39.1523833  35.6204083  22.5140113  40.4043833  36.1534083
  22.2860113  39.6573833  36.2174083  17.3460113  51.0363833  22.3984083
  18.0020113  50.4613833  22.4134083  17.7350113  51.7853833  22.1774083
  17.5010113  51.0613833  22.3684083  33.0790113  40.1303833  23.6604083
  32.7330113  40.8083833  24.0864083  32.4430113  39.5323833  23.6764083
  32.9340113  40.1423833  23.7254083  28.3910113  52.9003833  29.7644083
  29.1350113  53.3563833  29.7544083  28.2700113  52.6863833  28.9274083
  28.4830113  52.9363833  29.6394083  17.9590113  39.2033833  35.3404083
  17.1810113  38.8133833  35.2684083  18.4500113  38.7913833  34.7494083
  17.9160113  39.0843833  35.2424083  18.1640113  49.5233833  25.8984083
  18.5870113  49.1673833  25.2244083  18.4880113  49.1013833  26.5904083
  18.2740113  49.4083833  25.9014083  21.3950113  52.3753833  25.1944083
  22.2390113  52.4793833  24.9994083  21.0980113  53.1933833  25.2624083
  21.4760113  52.5113833  25.1754083  24.6080113  36.8463833  34.5084083
  24.7860113  36.0373833  34.2334083  24.4650113  37.2873833  33.7694083
  24.6130113  36.7923833  34.3584083  25.2020113  41.7723833  23.2814083
  25.4890113  41.5403833  22.4914083  25.9340113  41.8513833  23.7504083
  25.3520113  41.7493833  23.2344083  25.9240113  42.1113833  18.4024083
  26.2050113  42.8993833  18.6514083  25.1480113  42.2763833  18.0394083
  25.8510113  42.2523833  18.3854083  29.9650113  54.0853833  19.8694083
  30.6300113  53.9373833  19.3244083  30.3250113  54.0023833  20.6594083
  30.1170113  54.0513833  19.9054083  20.3930113  53.5943833  30.9344083
  20.6850113  53.5273833  31.7544083  19.7670113  52.9893833  30.8894083
  20.3440113  53.4953833  31.0494083  32.7540113  38.4533833  29.0294083
  33.5110113  38.5253833  28.6014083  32.8170113  37.6803833  29.4284083
  32.8750113  38.3503833  29.0244083  15.3070113  39.7513833  32.9264083
  15.3030113  40.3383833  33.5724083  15.9010113  40.0633833  32.3694083
  15.3940113  39.8843833  32.9394083  27.6450113  50.0853833  33.4684083
  27.6110113  50.4673833  34.2524083  28.4990113  50.0433833  33.2974083
  27.7660113  50.1353833  33.5594083  24.7830113  50.2823833  18.2184083
  24.6020113  50.8273833  18.8754083  25.5490113  50.5723833  17.9174083
  24.8690113  50.4063833  18.2714083  28.2900113  38.1783833  19.2724083
  28.8300113  37.4963833  19.3484083  28.3520113  38.5763833  20.0464083
  28.3790113  38.1363833  19.3984083  16.2440113  39.3463833  21.8414083
  16.1300113  38.4823833  21.8724083  15.7690113  39.6403833  22.5114083
  16.1570113  39.2623833  21.9444083  18.3860113  51.7563833  30.0564083
  17.6880113  51.2483833  30.1824083  18.6460113  51.5513833  29.2484083
  18.3210113  51.6513833  29.9554083  25.5480113  40.5543833  20.5864083
  25.0400113  39.8923833  20.3324083  25.6000113  41.0583833  19.8764083
  25.4810113  40.5313833  20.4444083  26.0970113  53.2493833  30.9664083
  26.8650113  53.1693833  30.5604083  25.5140113  53.1283833  30.3284083
  26.1240113  53.2193833  30.8124083  25.5480113  37.4953833  20.4774083
  25.0930113  37.0933833  19.8514083  26.3210113  37.6503833  20.1024083
  25.5950113  37.4593833  20.3294083  32.3740113  53.8523833  23.8674083
  31.9190113  54.5693833  24.0684083  31.7600113  53.2813833  23.6254083
  32.2160113  53.8743833  23.8614083  24.1460113  39.8623833  24.9994083
  24.2200113  40.4303833  24.3414083  24.2670113  40.3543833  25.7094083
  24.1740113  40.0193833  25.0074083  29.3710113  49.6973833  23.4114083
  30.0720113  49.2153833  23.6004083  28.7110113  49.1283833  23.4564083
  29.3770113  49.5423833  23.4454083  19.7470113  50.6073833  32.6234083
  20.5880113  50.6703833  32.4014083  19.7100113  51.0043833  33.3994083
  19.8660113  50.6753833  32.7054083  18.7540113  35.6853833  23.3474083
  19.2900113  36.3733833  23.3374083  18.7570113  35.4113833  22.5194083
  18.8330113  35.7463833  23.2234083  21.7100113  46.1183833  27.3724083
  21.8820113  45.9083833  28.2014083  21.0550113  45.5843833  27.1564083
  21.6390113  46.0083833  27.4634083  27.9380113  40.0323833  30.8874083
  27.8430113  40.3513833  31.6934083  27.3450113  39.3933833  30.8494083
  27.8360113  39.9843833  31.0014083  22.4600113  46.0563833  29.9624083
  22.5130113  46.9033833  30.1644083  22.1750113  45.6863833  30.6994083
  22.4260113  46.1263833  30.1004083  28.6370113  46.7513833  29.0924083
  28.1230113  46.3393833  29.6634083  28.5110113  47.5953833  29.2734083
  28.5430113  46.8153833  29.2034083  29.1940113  35.9763833  23.7234083
  29.2430113  35.6583833  24.5344083  29.5170113  35.3323833  23.2304083
  29.2490113  35.8343833  23.7704083  15.2810113  50.4273833  36.1734083
  16.0370113  50.7763833  36.4314083  15.4580113  49.5743833  36.1164083
  15.4190113  50.3523833  36.2034083  31.6580113  40.2123833  32.0314083
  32.4300113  39.9873833  32.3684083  31.1830113  40.4293833  32.7314083
  31.7020113  40.2113833  32.1844083  19.2020113  39.4953833  25.0014083
  19.4740113  39.0653833  24.2934083  19.0260113  38.8593833  25.5724083
  19.2160113  39.3383833  24.9814083  31.8900113  47.1903833  19.2194083
  32.0090113  46.9033833  20.0344083  32.6970113  47.2113833  18.8894083
  32.0260113  47.1513833  19.2914083  19.0260113  46.9223833  24.5504083
  19.8770113  46.8423833  24.3774083  18.6690113  46.2403833  24.1384083
  19.0990113  46.8093833  24.4634083  17.7930113  53.6473833  25.7874083
  17.1200113  53.1493833  25.5424083  18.1960113  53.8323833  25.0364083
  17.7530113  53.6013833  25.6404083  17.3430113  40.5973833  28.0834083
  18.1860113  40.8173833  28.0404083  16.9540113  41.1703833  27.5524083
  17.4100113  40.7143833  27.9984083  34.1240113  51.6993833  33.4734083
  33.4420113  52.0093833  33.0264083  33.7550113  51.2413833  34.1184083
  33.9680113  51.6773833  33.5024083  29.7850113  43.7273833  18.8044083
  29.5650113  44.4583833  18.3824083  29.3370113  43.7783833  19.5514083
  29.6860113  43.8423833  18.8524083  21.3940113  46.9293833  22.7854083
  22.1070113  47.4243833  22.8754083  21.6160113  46.3623833  22.1594083
  21.5320113  46.9183833  22.7064083  33.9720113  38.5883833  18.2574083
  33.3100113  38.0203833  18.2804083  33.7790113  39.1003833  17.5774083
  33.8460113  38.5803833  18.1604083  15.5500113  48.5723833  26.1054083
  14.8830113  49.0603833  26.3814083  16.2300113  49.1173833  26.1344083
  15.5520113  48.7243833  26.1504083  23.1970113  42.2823833  36.2014083
  22.7130113  42.8593833  36.6434083  23.1690113  42.5773833  35.3804083
  23.1210113  42.4113833  36.1454083  34.2950113  42.9663833  30.8134083
  34.5100113  42.1663833  30.5374083  33.4450113  43.0263833  30.6244083
  34.2010113  42.8573833  30.7444083  15.6160113  45.2563833  21.2084083
  15.4310113  44.4173833  21.3604083  16.2750113  45.2203833  20.6384083
  15.6860113  45.1273833  21.1464083  31.9740113  38.1463833  20.5364083
  32.7200113  37.7393833  20.7354083  32.2370113  38.8613833  20.1114083
  32.1230113  38.1923833  20.5034083  25.9170113  50.6323833  25.1124083
  25.3940113  51.2663833  24.8194083  26.2270113  50.2683833  24.3834083
  25.8850113  50.6723833  24.9614083  15.7880113  49.4203833  20.7834083
  16.3400113  49.9893833  21.1474083  15.5560113  48.9053833  21.4484083
  15.8350113  49.4283833  20.9354083  19.9920113  48.4203833  27.8724083
  20.4590113  48.7093833  28.5504083  20.5640113  47.9423833  27.4184083
  20.1460113  48.3923833  27.9054083  28.4280113  40.4343833  25.6094083
  28.7720113  40.5863833  26.3964083  27.9750113  39.6963833  25.7224083
  28.4120113  40.3473833  25.7424083  15.6180113  47.8693833  18.4114083
  16.3740113  47.4373833  18.4694083  15.6330113  48.4013833  19.1024083
  15.7320113  47.8843833  18.5224083  16.5580113  46.0903833  26.4164083
  16.9890113  45.9613833  25.6694083  16.3530113  46.9383833  26.3904083
  16.5910113  46.1963833  26.3024083  22.9040113  39.6543833  20.0664083
  22.9020113  39.5373833  19.2014083  22.7230113  40.5023833  20.1584083
  22.8770113  39.7623833  19.9524083  31.9580113  52.0813833  31.5634083
  31.2870113  52.5953833  31.7814083  32.0210113  52.1813833  30.6994083
  31.8680113  52.1723833  31.4684083  20.6420113  49.6063833  24.6984083
  20.7680113  50.4493833  24.8854083  21.3100113  49.2073833  25.0944083
  20.7600113  49.6723833  24.7844083  18.7720113  43.0893833  34.5604083
  18.2360113  42.5833833  35.0284083  18.7920113  42.6993833  33.7804083
  18.6950113  42.9563833  34.5144083  19.2570113  42.4863833  19.7004083
  19.1290113  42.0383833  20.4384083  18.6750113  42.1443833  19.1484083
  19.1520113  42.3693833  19.7284083  19.4240113  44.3163833  26.2994083
  18.6430113  44.2573833  25.9164083  19.4960113  43.5643833  26.7364083
  19.3190113  44.1973833  26.3074083  19.8540113  44.0533833  29.7674083
  19.8790113  43.3783833  29.2164083  19.2080113  44.5493833  29.4554083
  19.7630113  44.0263833  29.6404083  29.7490113  41.7663833  28.1634083
  29.0870113  42.0943833  28.6264083  29.9360113  42.4003833  27.5944083
  29.6790113  41.9083833  28.1474083  23.9540113  52.8303833  29.1594083
  23.6770113  52.1893833  28.6364083  23.7460113  53.5563833  28.7214083
  23.8830113  52.8433833  29.0174083  26.3940113  37.6723833  31.5924083
  26.5430113  36.8473833  31.3494083  26.7730113  37.7273833  32.3764083
  26.4720113  37.5583833  31.6724083  27.9420113  39.7353833  21.6744083
  28.4320113  40.4523833  21.5974083  27.1520113  39.9963833  21.4114083
  27.8980113  39.8793833  21.6244083  17.6530113  45.4083833  35.3264083
  17.6160113  45.9093833  34.6124083  17.9840113  44.6563833  35.0314083
  17.6960113  45.3703833  35.1774083  29.2560113  47.6133833  33.5844083
  29.7400113  48.3313833  33.6824083  29.6500113  47.1863833  32.9334083
  29.3860113  47.6563833  33.5024083  23.5520113  50.4583833  34.7614083
  23.9060113  50.2803833  35.5384083  23.1160113  49.7293833  34.5624083
  23.5400113  50.3243833  34.8474083  24.5240113  41.2053833  27.3994083
  25.0040113  41.9043833  27.6074083  24.8970113  40.5583833  27.8504083
  24.6500113  41.2133833  27.4964083  26.7130113  44.3743833  19.6734083
  26.7050113  45.0963833  19.1834083  26.0740113  44.5093833  20.2504083
  26.6180113  44.5013833  19.6864083  31.6850113  48.2443833  23.6544083
  32.0410113  47.8943833  24.3694083  31.6770113  47.5833833  23.0844083
  31.7370113  48.0943833  23.6754083  27.7300113  51.3103833  27.4984083
  27.1270113  51.0143833  26.9414083  28.2750113  51.7623833  26.9894083
  27.7210113  51.3333833  27.3404083  27.7430113  48.1613833  26.8984083
  26.9460113  48.3853833  27.1724083  28.0010113  47.5673833  27.4834083
  27.6630113  48.1063833  27.0254083  21.6350113  52.9733833  21.3464083
  21.4880113  52.1973833  21.7174083  22.3240113  52.8263833  20.8314083
  21.7150113  52.8363833  21.3254083  21.3060113  36.7163833  19.3344083
  21.4030113  36.6093833  20.1954083  20.5980113  37.2223833  19.2694083
  21.2160113  36.7753833  19.4524083  23.9270113  52.4893833  19.7484083
  24.5490113  52.6523833  20.3384083  23.9630113  53.1803833  19.2164083
  24.0240113  52.6153833  19.7574083  31.0030113  46.1593833  31.7444083
  31.0580113  46.2843833  30.8824083  31.7560113  46.4793833  32.0464083
  31.1220113  46.2243833  31.6614083  27.1940113  51.5083833  36.0214083
  27.3580113  51.7913833  36.8304083  27.4570113  52.1693833  35.5164083
  27.2570113  51.6483833  36.0664083  32.0350113  36.4573833  34.7314083
  31.3980113  36.0573833  34.2894083  32.0610113  36.0263833  35.4894083
  31.9450113  36.3353833  34.7774083  18.4280113  45.0233833  20.5774083
  18.7520113  44.2443833  20.3554083  19.0740113  45.3913833  21.0324083
  18.5710113  44.9623833  20.6114083  26.7340113  45.9653833  31.3444083
  26.5790113  46.5753833  31.9484083  27.2680113  45.4073833  31.7504083
  26.7900113  45.9733833  31.4934083  15.4250113  36.6843833  21.5454083
  15.5540113  35.9763833  21.0534083  15.0580113  36.3663833  22.2704083
  15.3900113  36.5323833  21.5804083  25.1180113  44.3653833  22.0024083
  25.1770113  45.0153833  22.5814083  24.9290113  43.6693833  22.4934083
  25.0990113  44.3583833  22.1604083  30.3440113  48.6943833  27.8714083
  29.8650113  48.9923833  27.2054083  29.9880113  47.9183833  28.0494083
  30.2210113  48.6233833  27.7994083  19.6140113  38.8823833  18.5144083
  19.1030113  38.9353833  17.8084083  20.3980113  39.1223833  18.2184083
  19.6540113  38.9253833  18.3664083  24.3410113  46.4123833  26.4334083
  23.4940113  46.2183833  26.5144083  24.6650113  46.2473833  27.2264083
  24.2630113  46.3593833  26.5624083  21.0930113  53.1423833  17.3194083
  21.5320113  52.4453833  17.6074083  21.3000113  53.7663833  17.8924083
  21.1890113  53.1313833  17.4464083  18.1890113  46.1053833  28.7494083
  18.9110113  46.5933833  28.7124083  17.9190113  46.0753833  27.9204083
  18.2560113  46.1733833  28.6214083  21.4190113  41.2763833  25.4844083
  22.2650113  41.0863833  25.5824083  21.0490113  40.4993833  25.3464083
  21.4890113  41.1333833  25.4784083  34.0360113  52.8603833  19.8114083
  34.7300113  52.3933833  19.5634083  33.4970113  52.2623833  20.1484083
  34.0590113  52.7023833  19.8244083  16.2400113  42.6143833  22.1394083
  16.7290113  42.3223833  22.8004083  16.3690113  42.0213833  21.5124083
  16.3310113  42.4833833  22.1444083  31.2750113  45.6363833  28.9904083
  31.2680113  44.8603833  29.3884083  30.4340113  45.8703833  28.9834083
  31.1500113  45.5563833  29.0484083  20.7650113  44.0483833  17.6254083
  20.1550113  43.6433833  18.0994083  20.3790113  44.1663833  16.8524083
  20.6180113  44.0053833  17.5814083  17.5840113  47.1573833  33.0274083
  17.1630113  46.6393833  32.4664083  17.2320113  47.9433833  32.8844083
  17.4700113  47.1973833  32.9234083  32.5310113  45.7073833  26.4274083
  32.2450113  46.1083833  27.1474083  33.3910113  45.6453833  26.5544083
  32.6160113  45.7573833  26.5524083  22.2200113  42.5093833  20.3354083
  22.4920113  43.3353833  20.4024083  21.3570113  42.5843833  20.2394083
  22.1330113  42.6423833  20.3304083  30.1930113  39.6313833  34.9674083
  29.6680113  40.0903833  35.4914083  29.8320113  38.8363833  34.9614083
  30.0620113  39.5813833  35.0434083  15.7000113  38.4793833  26.8714083
  15.7440113  38.8233833  26.0704083  16.4550113  38.7163833  27.2384083
  15.8180113  38.5653833  26.8074083  33.6620113  51.3403833  26.9564083
  33.9520113  51.5973833  26.1754083  34.3570113  51.4363833  27.4754083
  33.8080113  51.3923833  26.9174083  28.6850113  43.2003833  35.0434083
  28.7580113  43.3043833  35.9064083  28.0510113  43.7583833  34.8224083
  28.6020113  43.2983833  35.1384083  30.9530113  43.5193833  33.4084083
  31.2720113  44.3053833  33.6114083  30.5830113  43.2493833  34.1514083
  30.9460113  43.5953833  33.5484083  30.2670113  49.9433833  18.9384083
  30.6010113  49.1373833  18.9734083  29.5120113  49.8713833  19.3684083
  30.2050113  49.8133833  19.0074083  30.7490113  41.7773833  24.5974083
  30.0040113  41.4543833  24.9154083  30.7510113  42.6033833  24.8774083
  30.6390113  41.8513833  24.6854083  33.6510113  44.0613833  36.1434083
  33.5990113  43.7203833  35.3424083  34.3880113  44.5283833  36.1214083
  33.7520113  44.0803833  36.0214083  33.1890113  47.7373833  32.3494083
  33.8170113  47.1883833  32.0934083  33.1280113  48.3023833  31.6874083
  33.2730113  47.7403833  32.2134083  27.6410113  47.8183833  18.3414083
  28.3250113  47.3043833  18.1724083  27.2240113  47.8643833  17.5764083
  27.6800113  47.7493833  18.2034083  22.3230113  48.9683833  29.6454083
  22.0250113  49.5603833  30.2124083  22.3780113  49.4103833  28.8964083
  22.2870113  49.1213833  29.6184083  20.3020113  47.9183833  33.0434083
  19.4960113  47.6283833  33.2104083  20.2130113  48.7863833  33.0494083
  20.1700113  48.0033833  33.0684083  29.6610113  38.1073833  32.0584083
  30.4050113  38.5593833  31.9954083  29.0950113  38.5773833  31.5894083
  29.6880113  38.2443833  31.9804083  24.8390113  45.3913833  29.1364083
  25.3150113  45.7653833  29.7644083  24.0160113  45.5253833  29.3954083
  24.7880113  45.4663833  29.2674083  21.5490113  40.9943833  31.8774083
  21.7100113  40.2503833  32.3044083  21.5040113  40.7453833  31.0424083
  21.5660113  40.8473833  31.8174083  24.1030113  52.7843833  24.3644083
  24.6490113  53.4633833  24.4184083  23.7530113  52.8663833  23.5694083
  24.1320113  52.8973833  24.2544083  30.9460113  36.0873833  29.7284083
  30.6660113  36.9123833  29.6844083  31.6620113  36.1403833  30.2244083
  31.0110113  36.2173833  29.7954083  23.3010113  36.8023833  31.7574083
  24.0060113  37.1223833  31.3554083  23.5420113  35.9953833  31.9844083
  23.4400113  36.7303833  31.7314083  22.2860113  51.0123833  27.7534083
  21.6620113  51.5943833  27.5714083  22.5340113  50.7263833  26.9674083
  22.2300113  51.0563833  27.6104083  26.5950113  47.6463833  34.7424083
  27.3520113  47.9323833  34.4164083  26.0480113  47.6983833  34.0644083
  26.6260113  47.6963833  34.5934083  30.5040113  50.1963833  33.2464083
  30.8500113  50.4663833  34.0004083  30.7980113  50.7783833  32.6664083
  30.5990113  50.3223833  33.2724083  32.3670113  42.3423833  18.5854083
  32.7450113  43.0193833  18.1854083  31.5250113  42.5663833  18.6164083
  32.2980113  42.4753833  18.5304083  23.8800113  45.7883833  17.6684083
  23.0750113  45.6113833  17.3834083  23.8470113  46.6393833  17.8604083
  23.7560113  45.8873833  17.6554083  19.8100113  41.8553833  27.8184083
  20.2500113  41.7523833  27.0724083  20.3550113  41.5423833  28.4234083
  19.9550113  41.7943833  27.7974083  27.8260113  40.9573833  33.4104083
  27.1780113  41.4273833  33.7584083  28.3910113  40.8683833  34.0694083
  27.8140113  41.0133833  33.5594083  27.5140113  42.4943833  29.7084083
  27.8160113  42.9143833  30.4114083  27.5500113  41.6543833  29.9404083
  27.5640113  42.4323833  29.8464083  24.9390113  52.6613833  33.6334083
  25.4170113  52.0613833  33.2174083  24.5880113  52.2183833  34.2984083
  24.9580113  52.5073833  33.6704083  30.0620113  41.9413833  21.9604083
  30.2690113  41.7403833  22.7844083  30.8180113  42.2093833  21.6184083
  30.2040113  41.9513833  22.0314083  23.3570113  36.8403833  27.8654083
  22.5310113  36.6913833  28.1024083  23.3170113  36.8753833  26.9944083
  23.2290113  36.8233833  27.7714083  31.0840113  38.0243833  23.4344083
  30.3700113  37.5533833  23.6054083  30.9220113  38.3653833  22.6484083
  30.9550113  38.0053833  23.3434083  31.5270113  45.9683833  21.8144083
  32.0030113  45.2393833  21.7664083  30.7060113  45.6823833  21.7384083
  31.4760113  45.8183833  21.7954083  24.9980113  47.8803833  32.6534083
  24.2030113  47.8163833  33.0044083  25.0690113  48.7273833  32.4584083
  24.8910113  47.9953833  32.6764083  15.9220113  37.2383833  33.9004083
  15.7820113  38.0333833  33.5694083  15.1360113  36.9953833  34.1894083
  15.7850113  37.3203833  33.8944083  20.8280113  54.0873833  27.9704083
  20.8390113  54.1463833  28.8404083  20.4030113  53.3403833  27.8204083
  20.7670113  53.9853833  28.0764083  18.9860113  39.9823833  21.1254083
  19.1120113  39.6533833  20.3274083  18.1740113  39.7333833  21.3244083
  18.8850113  39.8973833  21.0374083  27.7430113  47.1353833  24.1694083
  27.8190113  47.4763833  24.9684083  27.9120113  46.2883833  24.2904083
  27.7790113  47.0603833  24.3054083  25.2650113  46.4093833  23.7344083
  24.9670113  46.0943833  24.4914083  25.9600113  46.8823833  23.9694083
  25.3240113  46.4323833  23.8814083  25.4870113  50.5273833  31.7614083
  26.1740113  50.4133833  32.2864083  25.6210113  51.3183833  31.4174083
  25.6080113  50.6273833  31.7884083  33.6630113  43.1363833  33.5724083
  32.8080113  43.0143833  33.6984083  33.8160113  42.7413833  32.8094083
  33.5590113  43.0593833  33.4784083  28.1760113  43.8013833  32.1484083
  27.9210113  43.0823833  32.5704083  28.9970113  43.9173833  32.4184083
  28.2600113  43.7123833  32.2504083  17.5920113  53.5853833  33.4124083
  16.9380113  53.0163833  33.5104083  17.2170113  54.3583833  33.5634083
  17.4400113  53.6153833  33.4494083  26.1100113  44.9913833  35.3354083
  26.4330113  45.6773833  34.9034083  25.4060113  45.3143833  35.7374083
  26.0530113  45.1403833  35.3304083  29.1940113  53.3653833  26.2644083
  28.7430113  54.0083833  26.6434083  29.9020113  53.2863833  26.7694083
  29.2320113  53.4483833  26.3954083  25.8950113  48.4553833  29.1944083
  25.2010113  48.8573833  29.5374083  26.5720113  48.8883833  29.5334083
  25.8920113  48.5783833  29.2954083  31.2720113  51.0483833  35.7744083
  32.0480113  50.6583833  35.8574083  30.8030113  50.7123833  36.4294083
  31.3170113  50.9413833  35.8834083  18.9630113  41.9933833  31.5414083
  19.3380113  42.6123833  31.0544083  19.6370113  41.5193833  31.8264083
  19.1180113  42.0153833  31.5114083  16.7380113  40.4413833  30.8164083
  16.8150113  40.2723833  29.9634083  17.4840113  40.8473833  31.0134083
  16.8590113  40.4763833  30.7194083  32.2970113  43.0813833  21.2564083
  32.4000113  43.0233833  20.3924083  33.0380113  42.7493833  21.5744083
  32.4220113  43.0243833  21.1754083  19.2920113  37.8513833  33.2274083
  19.2110113  37.0073833  33.4334083  18.9780113  37.8953833  32.4144083
  19.2340113  37.7333833  33.1374083  26.2170113  50.0463833  22.3634083
  26.0120113  50.8793833  22.2044083  25.4420113  49.6643833  22.4854083
  26.0720113  50.1133833  22.3584083  31.3990113  43.2273833  30.6124083
  31.3970113  42.3643833  30.7364083  31.4660113  43.5513833  31.4194083
  31.4090113  43.1473833  30.7494083  16.1350113  45.6673833  31.0404083
  16.4550113  45.8863833  30.2594083  16.0350113  44.8023833  30.9854083
  16.1670113  45.5723833  30.9174083  17.5910113  41.6033833  17.6584083
  16.9190113  41.6173833  18.2144083  17.6860113  40.7553833  17.4744083
  17.5060113  41.4803833  17.7134083  27.2780113  38.0273833  34.3944083
  27.3700113  38.7393833  34.8884083  26.6410113  37.5823833  34.7914083
  27.1970113  38.0663833  34.5264083  26.2720113  38.2173833  25.2484083
  25.5720113  38.7353833  25.1924083  26.3100113  37.8373833  24.4644083
  26.1740113  38.2383833  25.1244083  21.5790113  50.3083833  18.7724083
  22.0200113  50.3883833  19.5204083  20.7740113  50.0923833  19.0304083
  21.5250113  50.2883833  18.9214083  29.8700113  38.7333833  28.0484083
  30.7250113  38.8323833  28.1934083  29.5010113  39.2863833  28.6134083
  29.9420113  38.8303833  28.1534083  20.8980113  44.9593833  32.4254083
  20.5020113  45.7333833  32.5004083  20.4920113  44.5863833  31.7494083
  20.7800113  45.0183833  32.3364083  30.1740113  44.0133833  26.5394083
  30.8400113  44.5543833  26.6994083  29.8290113  44.3243833  25.8004083
  30.2210113  44.1393833  26.4544083  30.4870113  52.0793833  22.3464083
  30.3130113  51.4253833  22.8964083  31.2000113  51.8083833  21.9234083
  30.5670113  51.9423833  22.3654083  18.9080113  49.3783833  19.3734083
  18.6640113  49.0713833  20.1534083  18.8750113  48.6753833  18.8574083
  18.8670113  49.2293833  19.4124083  21.7270113  47.6233833  18.1164083
  20.9090113  47.3553833  18.2564083  21.6990113  48.4753833  18.3014083
  21.6020113  47.7103833  18.1644083  21.3270113  37.9363833  29.8754083
  20.4630113  38.0203833  29.9554083  21.5470113  37.4223833  30.5444083
  21.2320113  37.8733833  29.9864083  33.3450113  36.5713833  31.2044083
  33.2930113  36.5273833  32.0744083  34.0320113  36.0683833  31.0144083
  33.4390113  36.4913833  31.3044083  25.4300113  38.6843833  28.2494083
  24.6930113  38.2303833  28.3624083  26.0010113  38.2823833  28.7724083
  25.4050113  38.5573833  28.3434083  28.1620113  49.5323833  30.0374083
  28.3680113  49.8333833  30.8294083  28.1010113  50.2543833  29.5524083
  28.1830113  49.6833833  30.0824083  27.6960113  53.7463833  34.2834083
  26.9430113  53.7283833  33.8424083  27.8640113  54.5983833  34.3674083
  27.6100113  53.8693833  34.2304083  22.9330113  43.0133833  33.4534083
  22.6110113  42.4373833  32.8834083  22.5740113  43.7683833  33.2074083
  22.8330113  43.0393833  33.3334083  23.7290113  36.2653833  18.0804083
  23.8070113  36.5123833  17.2474083  22.9860113  36.6423833  18.3384083
  23.6310113  36.3573833  17.9954083  32.9740113  48.1713833  29.4954083
  32.9420113  47.3093833  29.3604083  32.2810113  48.4733833  29.0614083
  32.8670113  48.0883833  29.4114083  21.3680113  53.3693833  33.7014083
  21.4090113  53.4953833  34.5644083  22.0190113  52.8093833  33.5454083
  21.4700113  53.3053833  33.8064083  31.0790113  51.4313833  28.2924083
  31.6060113  51.3483833  27.6014083  30.6880113  50.6533833  28.3464083
  31.0990113  51.3043833  28.1984083  18.5470113  38.0193833  30.5234083
  18.2040113  37.2523833  30.2894083  17.8520113  38.5433833  30.5874083
  18.3940113  37.9833833  30.4984083  27.5930113  36.8753833  27.5004083
  28.2630113  37.4193833  27.6274083  27.0900113  37.2993833  26.9274083
  27.6180113  37.0183833  27.4344083  18.9610113  51.7523833  35.0614083
  19.5560113  52.1833833  35.5334083  18.5970113  52.3763833  34.5724083
  18.9950113  51.9083833  35.0584083  26.9520113  42.6833833  24.9934083
  27.5030113  42.0763833  25.2934083  26.5270113  42.9463833  25.7084083
  26.9710113  42.6323833  25.1424083  17.2000113  41.3333833  24.4794083
  16.8320113  41.6353833  25.2104083  17.7340113  40.7043833  24.7634083
  17.2240113  41.2853833  24.6294083  16.8880113  49.7413833  31.9904083
  16.3140113  50.1573833  32.4994083  17.6210113  50.2063833  32.0854083
  16.9120113  49.8713833  32.0794083  28.9220113  44.5143833  21.5554083
  28.9900113  43.6643833  21.7364083  28.0990113  44.6003833  21.2774083
  28.8100113  44.4013833  21.5414083  18.6740113  53.0083833  20.7654083
  18.5290113  53.1643833  19.9194083  19.5400113  53.0873833  20.8434083
  18.7810113  53.0433833  20.6524083  22.8410113  45.4053833  20.4934083
  22.9410113  45.5443833  19.6384083  23.6590113  45.3453833  20.7894083
  22.9760113  45.4163833  20.4104083  32.0010113  53.4693833  17.9734083
  32.6380113  53.3353833  18.5544083  31.6600113  52.6753833  17.8564083
  32.0450113  53.3323833  18.0414083  32.1960113  45.8873833  34.7064083
  32.8300113  45.7173833  35.2804083  32.6130113  46.2903833  34.0544083
  32.3510113  45.9223833  34.6954083  28.0760113  49.7343833  20.2954083
  27.8250113  49.6063833  21.1214083  27.7590113  49.0393833  19.8744083
  27.9920113  49.6133833  20.3554083  32.8210113  40.4513833  35.4444083
  32.6250113  41.0953833  35.9994083  32.0990113  39.9613833  35.4364083
  32.6860113  40.4743833  35.5254083  32.7200113  41.3923833  28.4154083
  31.8870113  41.6423833  28.3434083  32.6640113  40.5523833  28.6444083
  32.5890113  41.3053833  28.4384083  21.9800113  38.3803833  33.6094083
  22.2140113  37.8043833  32.9964083  21.1380113  38.1993833  33.7504083
  21.8900113  38.2683833  33.5394083  29.6070113  45.9983833  36.0614083
  30.4780113  45.9623833  36.0254083  29.3880113  46.4183833  35.3294083
  29.7040113  46.0543833  35.9484083  19.3610113  51.8233833  27.2424083
  19.2820113  51.0133833  26.9264083  18.9170113  52.3103833  26.6704083
  19.2840113  51.7753833  27.1114083  24.9620113  47.9423833  19.7254083
  25.6790113  47.5953833  19.3694083  24.9280113  48.7423833  19.3774083
  25.0630113  48.0093833  19.6214083  16.9330113  54.0673833  30.8234083
  17.4260113  54.0113833  31.5414083  17.1210113  53.3343833  30.3884083
  17.0340113  53.9503833  30.8654083  26.3710113  36.5833833   3.9641673
  26.1260113  37.0713833   3.2841673  27.2340113  36.5103833   3.8641673
  26.4620113  36.6443833   3.8491673  26.1800113  43.4993833   8.6351673
  25.6560113  44.0953833   8.9981673  26.5770113  43.1313833   9.3191673
  26.1610113  43.5333833   8.7901673  16.0490113  47.6393833   4.0911673
  15.6080113  47.7573833   4.8341673  15.7660113  46.8643833   3.8061673
  15.9420113  47.5423833   4.1591673  28.8510113  44.5663833   5.3111673
  28.9310113  44.5703833   4.4421673  28.2670113  43.9343833   5.4601673
  28.7760113  44.4733833   5.2051673  18.5580113  48.3353833   3.1701673
  19.1660113  48.1653833   3.7731673  17.8070113  48.1953833   3.5911673
  18.5370113  48.2893833   3.3211673  22.8400113  37.6703833   3.1191673
  22.7700113  38.3473833   2.5731673  23.5810113  37.2823833   2.8701673
  22.9390113  37.7133833   3.0011673  15.9890113  50.3743833  10.3461673
  16.1180113  50.0943833  11.1621673  15.3790113  49.8333833  10.0371673
  15.9180113  50.2533833  10.4211673  22.5630113  47.8993833  15.4131673
  22.3270113  47.8963833  16.2531673  21.8150113  47.7513833  14.9891673
  22.4170113  47.8763833  15.4741673  17.4350113  44.8953833   4.5481673
  16.9730113  44.5033833   3.9211673  18.1350113  44.3823833   4.6401673
  17.4700113  44.7623833   4.4691673  21.9430113  40.5053833   9.8951673
  22.6210113  40.5233833   9.3461673  21.8980113  39.6693833  10.1401673
  22.0360113  40.3843833   9.8501673  22.5450113  51.0913833  12.6761673
  22.6830113  51.8513833  12.2691673  23.3360113  50.7263833  12.7031673
  22.6820113  51.1503833  12.6201673  19.4360113  42.9953833   4.5711673
  20.2530113  42.8083833   4.8141673  18.9590113  42.3813833   4.9671673
  19.4860113  42.8773833   4.6661673  23.6400113  48.9763833   7.1811673
  23.9880113  48.1773833   7.2111673  24.3050113  49.4803833   6.9261673
  23.7900113  48.9323833   7.1481673  23.6970113  48.4253833   3.3921673
  24.0280113  47.7813833   3.8781673  23.9370113  48.2143833   2.5811673
  23.7810113  48.2993833   3.3441673  25.6650113  42.5563833  14.7311673
  24.8170113  42.4573833  14.5531673  25.6940113  43.3013833  15.1851673
  25.5440113  42.6523833  14.7721673  20.0330113  38.0893833   3.8371673
  19.7370113  38.5903833   3.1871673  20.9000113  38.1673833   3.7801673
  20.1170113  38.1753833   3.7331673  30.2230113  35.5163833  13.8451673
  30.0650113  36.2853833  13.4631673  29.4510113  35.2963833  14.1891673
  30.0850113  35.5973833  13.8401673  23.0120113  37.2313833   6.0601673
  23.0850113  38.0913833   6.1891673  22.9740113  37.1563833   5.1921673
  23.0170113  37.3473833   5.9511673  15.8910113  42.6563833   7.5611673
  15.6350113  43.4873833   7.4861673  15.2270113  42.2733833   7.9781673
  15.7550113  42.7223833   7.6121673  15.8010113  52.3663833   5.4611673
  15.2090113  52.9243833   5.1481673  16.2270113  52.0973833   4.7491673
  15.7770113  52.4083833   5.3101673  21.6410113  50.2103833   2.9411673
  21.0620113  49.9353833   3.5331673  22.2650113  49.6013833   2.9661673
  21.6480113  50.0803833   3.0321673  25.9520113  52.8903833   2.4531673
  26.1660113  53.4173833   3.1151673  26.7190113  52.7163833   2.0741673
  26.0970113  52.9423833   2.4951673  18.9200113  37.4733833   8.0521673
  18.3990113  36.8453833   7.7441673  19.5110113  37.0363833   8.5231673
  18.9310113  37.3153833   8.0761673  22.2260113  39.6063833  17.3501673
  22.3430113  39.1523833  16.6141673  22.5140113  40.4043833  17.1471673
  22.2860113  39.6573833  17.2111673  17.3460113  51.0363833   3.3921673
  18.0020113  50.4613833   3.4071673  17.7350113  51.7853833   3.1711673
  17.5010113  51.0613833   3.3621673  33.0790113  40.1303833   4.6541673
  32.7330113  40.8083833   5.0801673  32.4430113  39.5323833   4.6701673
  32.9340113  40.1423833   4.7191673  28.3910113  52.9003833  10.7581673
  29.1350113  53.3563833  10.7481673  28.2700113  52.6863833   9.9211673
  28.4830113  52.9363833  10.6331673  17.9590113  39.2033833  16.3341673
  17.1810113  38.8133833  16.2621673  18.4500113  38.7913833  15.7431673
  17.9160113  39.0843833  16.2361673  18.1640113  49.5233833   6.8921673
  18.5870113  49.1673833   6.2181673  18.4880113  49.1013833   7.5841673
  18.2740113  49.4083833   6.8951673  21.3950113  52.3753833   6.1881673
  22.2390113  52.4793833   5.9931673  21.0980113  53.1933833   6.2561673
  21.4760113  52.5113833   6.1691673  24.6080113  36.8463833  15.5021673
  24.7860113  36.0373833  15.2271673  24.4650113  37.2873833  14.7631673
  24.6130113  36.7923833  15.3521673  25.2020113  41.7723833   4.2751673
  25.4890113  41.5403833   3.4851673  25.9340113  41.8513833   4.7441673
  25.3520113  41.7493833   4.2281673  20.3930113  53.5943833  11.9281673
  20.6850113  53.5273833  12.7481673  19.7670113  52.9893833  11.8831673
  20.3440113  53.4953833  12.0431673  32.7540113  38.4533833  10.0231673
  33.5110113  38.5253833   9.5951673  32.8170113  37.6803833  10.4221673
  32.8750113  38.3503833  10.0181673  15.3070113  39.7513833  13.9201673
  15.3030113  40.3383833  14.5661673  15.9010113  40.0633833  13.3631673
  15.3940113  39.8843833  13.9331673  27.6450113  50.0853833  14.4621673
  27.6110113  50.4673833  15.2461673  28.4990113  50.0433833  14.2911673
  27.7660113  50.1353833  14.5531673  16.2440113  39.3463833   2.8351673
  16.1300113  38.4823833   2.8661673  15.7690113  39.6403833   3.5051673
  16.1570113  39.2623833   2.9381673  18.3860113  51.7563833  11.0501673
  17.6880113  51.2483833  11.1761673  18.6460113  51.5513833  10.2421673
  18.3210113  51.6513833  10.9491673  26.0970113  53.2493833  11.9601673
  26.8650113  53.1693833  11.5541673  25.5140113  53.1283833  11.3221673
  26.1240113  53.2193833  11.8061673  32.3740113  53.8523833   4.8611673
  31.9190113  54.5693833   5.0621673  31.7600113  53.2813833   4.6191673
  32.2160113  53.8743833   4.8551673  24.1460113  39.8623833   5.9931673
  24.2200113  40.4303833   5.3351673  24.2670113  40.3543833   6.7031673
  24.1740113  40.0193833   6.0011673  29.3710113  49.6973833   4.4051673
  30.0720113  49.2153833   4.5941673  28.7110113  49.1283833   4.4501673
  29.3770113  49.5423833   4.4391673  19.7470113  50.6073833  13.6171673
  20.5880113  50.6703833  13.3951673  19.7100113  51.0043833  14.3931673
  19.8660113  50.6753833  13.6991673  18.7540113  35.6853833   4.3411673
  19.2900113  36.3733833   4.3311673  18.7570113  35.4113833   3.5131673
  18.8330113  35.7463833   4.2171673  21.7100113  46.1183833   8.3661673
  21.8820113  45.9083833   9.1951673  21.0550113  45.5843833   8.1501673
  21.6390113  46.0083833   8.4571673  27.9380113  40.0323833  11.8811673
  27.8430113  40.3513833  12.6871673  27.3450113  39.3933833  11.8431673
  27.8360113  39.9843833  11.9951673  22.4600113  46.0563833  10.9561673
  22.5130113  46.9033833  11.1581673  22.1750113  45.6863833  11.6931673
  22.4260113  46.1263833  11.0941673  28.6370113  46.7513833  10.0861673
  28.1230113  46.3393833  10.6571673  28.5110113  47.5953833  10.2671673
  28.5430113  46.8153833  10.1971673  29.1940113  35.9763833   4.7171673
  29.2430113  35.6583833   5.5281673  29.5170113  35.3323833   4.2241673
  29.2490113  35.8343833   4.7641673  15.2810113  50.4273833  17.1671673
  16.0370113  50.7763833  17.4251673  15.4580113  49.5743833  17.1101673
  15.4190113  50.3523833  17.1971673  31.6580113  40.2123833  13.0251673
  32.4300113  39.9873833  13.3621673  31.1830113  40.4293833  13.7251673
  31.7020113  40.2113833  13.1781673  19.2020113  39.4953833   5.9951673
  19.4740113  39.0653833   5.2871673  19.0260113  38.8593833   6.5661673
  19.2160113  39.3383833   5.9751673  19.0260113  46.9223833   5.5441673
  19.8770113  46.8423833   5.3711673  18.6690113  46.2403833   5.1321673
  19.0990113  46.8093833   5.4571673  17.7930113  53.6473833   6.7811673
  17.1200113  53.1493833   6.5361673  18.1960113  53.8323833   6.0301673
  17.7530113  53.6013833   6.6341673  17.3430113  40.5973833   9.0771673
  18.1860113  40.8173833   9.0341673  16.9540113  41.1703833   8.5461673
  17.4100113  40.7143833   8.9921673  34.1240113  51.6993833  14.4671673
  33.4420113  52.0093833  14.0201673  33.7550113  51.2413833  15.1121673
  33.9680113  51.6773833  14.4961673  21.3940113  46.9293833   3.7791673
  22.1070113  47.4243833   3.8691673  21.6160113  46.3623833   3.1531673
  21.5320113  46.9183833   3.7001673  15.5500113  48.5723833   7.0991673
  14.8830113  49.0603833   7.3751673  16.2300113  49.1173833   7.1281673
  15.5520113  48.7243833   7.1441673  23.1970113  42.2823833  17.1951673
  22.7130113  42.8593833  17.6371673  23.1690113  42.5773833  16.3741673
  23.1210113  42.4113833  17.1391673  34.2950113  42.9663833  11.8071673
  34.5100113  42.1663833  11.5311673  33.4450113  43.0263833  11.6181673
  34.2010113  42.8573833  11.7381673  15.6160113  45.2563833   2.2021673
  15.4310113  44.4173833   2.3541673  16.2750113  45.2203833   1.6321673
  15.6860113  45.1273833   2.1401673  25.9170113  50.6323833   6.1061673
  25.3940113  51.2663833   5.8131673  26.2270113  50.2683833   5.3771673
  25.8850113  50.6723833   5.9551673  15.7880113  49.4203833   1.7771673
  16.3400113  49.9893833   2.1411673  15.5560113  48.9053833   2.4421673
  15.8350113  49.4283833   1.9291673  19.9920113  48.4203833   8.8661673
  20.4590113  48.7093833   9.5441673  20.5640113  47.9423833   8.4121673
  20.1460113  48.3923833   8.8991673  28.4280113  40.4343833   6.6031673
  28.7720113  40.5863833   7.3901673  27.9750113  39.6963833   6.7161673
  28.4120113  40.3473833   6.7361673  16.5580113  46.0903833   7.4101673
  16.9890113  45.9613833   6.6631673  16.3530113  46.9383833   7.3841673
  16.5910113  46.1963833   7.2961673  31.9580113  52.0813833  12.5571673
  31.2870113  52.5953833  12.7751673  32.0210113  52.1813833  11.6931673
  31.8680113  52.1723833  12.4621673  20.6420113  49.6063833   5.6921673
  20.7680113  50.4493833   5.8791673  21.3100113  49.2073833   6.0881673
  20.7600113  49.6723833   5.7781673  18.7720113  43.0893833  15.5541673
  18.2360113  42.5833833  16.0221673  18.7920113  42.6993833  14.7741673
  18.6950113  42.9563833  15.5081673  19.4240113  44.3163833   7.2931673
  18.6430113  44.2573833   6.9101673  19.4960113  43.5643833   7.7301673
  19.3190113  44.1973833   7.3011673  19.8540113  44.0533833  10.7611673
  19.8790113  43.3783833  10.2101673  19.2080113  44.5493833  10.4491673
  19.7630113  44.0263833  10.6341673  29.7490113  41.7663833   9.1571673
  29.0870113  42.0943833   9.6201673  29.9360113  42.4003833   8.5881673
  29.6790113  41.9083833   9.1411673  23.9540113  52.8303833  10.1531673
  23.6770113  52.1893833   9.6301673  23.7460113  53.5563833   9.7151673
  23.8830113  52.8433833  10.0111673  26.3940113  37.6723833  12.5861673
  26.5430113  36.8473833  12.3431673  26.7730113  37.7273833  13.3701673
  26.4720113  37.5583833  12.6661673  27.9420113  39.7353833   2.6681673
  28.4320113  40.4523833   2.5911673  27.1520113  39.9963833   2.4051673
  27.8980113  39.8793833   2.6181673  17.6530113  45.4083833  16.3201673
  17.6160113  45.9093833  15.6061673  17.9840113  44.6563833  16.0251673
  17.6960113  45.3703833  16.1711673  29.2560113  47.6133833  14.5781673
  29.7400113  48.3313833  14.6761673  29.6500113  47.1863833  13.9271673
  29.3860113  47.6563833  14.4961673  23.5520113  50.4583833  15.7551673
  23.9060113  50.2803833  16.5321673  23.1160113  49.7293833  15.5561673
  23.5400113  50.3243833  15.8411673  24.5240113  41.2053833   8.3931673
  25.0040113  41.9043833   8.6011673  24.8970113  40.5583833   8.8441673
  24.6500113  41.2133833   8.4901673  31.6850113  48.2443833   4.6481673
  32.0410113  47.8943833   5.3631673  31.6770113  47.5833833   4.0781673
  31.7370113  48.0943833   4.6691673  27.7300113  51.3103833   8.4921673
  27.1270113  51.0143833   7.9351673  28.2750113  51.7623833   7.9831673
  27.7210113  51.3333833   8.3341673  27.7430113  48.1613833   7.8921673
  26.9460113  48.3853833   8.1661673  28.0010113  47.5673833   8.4771673
  27.6630113  48.1063833   8.0191673  21.6350113  52.9733833   2.3401673
  21.4880113  52.1973833   2.7111673  22.3240113  52.8263833   1.8251673
  21.7150113  52.8363833   2.3191673  31.0030113  46.1593833  12.7381673
  31.0580113  46.2843833  11.8761673  31.7560113  46.4793833  13.0401673
  31.1220113  46.2243833  12.6551673  27.1940113  51.5083833  17.0151673
  27.3580113  51.7913833  17.8241673  27.4570113  52.1693833  16.5101673
  27.2570113  51.6483833  17.0601673  32.0350113  36.4573833  15.7251673
  31.3980113  36.0573833  15.2831673  32.0610113  36.0263833  16.4831673
  31.9450113  36.3353833  15.7711673  26.7340113  45.9653833  12.3381673
  26.5790113  46.5753833  12.9421673  27.2680113  45.4073833  12.7441673
  26.7900113  45.9733833  12.4871673  15.4250113  36.6843833   2.5391673
  15.5540113  35.9763833   2.0471673  15.0580113  36.3663833   3.2641673
  15.3900113  36.5323833   2.5741673  25.1180113  44.3653833   2.9961673
  25.1770113  45.0153833   3.5751673  24.9290113  43.6693833   3.4871673
  25.0990113  44.3583833   3.1541673  30.3440113  48.6943833   8.8651673
  29.8650113  48.9923833   8.1991673  29.9880113  47.9183833   9.0431673
  30.2210113  48.6233833   8.7931673  24.3410113  46.4123833   7.4271673
  23.4940113  46.2183833   7.5081673  24.6650113  46.2473833   8.2201673
  24.2630113  46.3593833   7.5561673  18.1890113  46.1053833   9.7431673
  18.9110113  46.5933833   9.7061673  17.9190113  46.0753833   8.9141673
  18.2560113  46.1733833   9.6151673  21.4190113  41.2763833   6.4781673
  22.2650113  41.0863833   6.5761673  21.0490113  40.4993833   6.3401673
  21.4890113  41.1333833   6.4721673  16.2400113  42.6143833   3.1331673
  16.7290113  42.3223833   3.7941673  16.3690113  42.0213833   2.5061673
  16.3310113  42.4833833   3.1381673  31.2750113  45.6363833   9.9841673
  31.2680113  44.8603833  10.3821673  30.4340113  45.8703833   9.9771673
  31.1500113  45.5563833  10.0421673  17.5840113  47.1573833  14.0211673
  17.1630113  46.6393833  13.4601673  17.2320113  47.9433833  13.8781673
  17.4700113  47.1973833  13.9171673  32.5310113  45.7073833   7.4211673
  32.2450113  46.1083833   8.1411673  33.3910113  45.6453833   7.5481673
  32.6160113  45.7573833   7.5461673  30.1930113  39.6313833  15.9611673
  29.6680113  40.0903833  16.4851673  29.8320113  38.8363833  15.9551673
  30.0620113  39.5813833  16.0371673  15.7000113  38.4793833   7.8651673
  15.7440113  38.8233833   7.0641673  16.4550113  38.7163833   8.2321673
  15.8180113  38.5653833   7.8011673  33.6620113  51.3403833   7.9501673
  33.9520113  51.5973833   7.1691673  34.3570113  51.4363833   8.4691673
  33.8080113  51.3923833   7.9111673  28.6850113  43.2003833  16.0371673
  28.7580113  43.3043833  16.9001673  28.0510113  43.7583833  15.8161673
  28.6020113  43.2983833  16.1321673  30.9530113  43.5193833  14.4021673
  31.2720113  44.3053833  14.6051673  30.5830113  43.2493833  15.1451673
  30.9460113  43.5953833  14.5421673  30.7490113  41.7773833   5.5911673
  30.0040113  41.4543833   5.9091673  30.7510113  42.6033833   5.8711673
  30.6390113  41.8513833   5.6791673  33.6510113  44.0613833  17.1371673
  33.5990113  43.7203833  16.3361673  34.3880113  44.5283833  17.1151673
  33.7520113  44.0803833  17.0151673  33.1890113  47.7373833  13.3431673
  33.8170113  47.1883833  13.0871673  33.1280113  48.3023833  12.6811673
  33.2730113  47.7403833  13.2071673  22.3230113  48.9683833  10.6391673
  22.0250113  49.5603833  11.2061673  22.3780113  49.4103833   9.8901673
  22.2870113  49.1213833  10.6121673  20.3020113  47.9183833  14.0371673
  19.4960113  47.6283833  14.2041673  20.2130113  48.7863833  14.0431673
  20.1700113  48.0033833  14.0621673  29.6610113  38.1073833  13.0521673
  30.4050113  38.5593833  12.9891673  29.0950113  38.5773833  12.5831673
  29.6880113  38.2443833  12.9741673  24.8390113  45.3913833  10.1301673
  25.3150113  45.7653833  10.7581673  24.0160113  45.5253833  10.3891673
  24.7880113  45.4663833  10.2611673  21.5490113  40.9943833  12.8711673
  21.7100113  40.2503833  13.2981673  21.5040113  40.7453833  12.0361673
  21.5660113  40.8473833  12.8111673  24.1030113  52.7843833   5.3581673
  24.6490113  53.4633833   5.4121673  23.7530113  52.8663833   4.5631673
  24.1320113  52.8973833   5.2481673  30.9460113  36.0873833  10.7221673
  30.6660113  36.9123833  10.6781673  31.6620113  36.1403833  11.2181673
  31.0110113  36.2173833  10.7891673  23.3010113  36.8023833  12.7511673
  24.0060113  37.1223833  12.3491673  23.5420113  35.9953833  12.9781673
  23.4400113  36.7303833  12.7251673  22.2860113  51.0123833   8.7471673
  21.6620113  51.5943833   8.5651673  22.5340113  50.7263833   7.9611673
  22.2300113  51.0563833   8.6041673  26.5950113  47.6463833  15.7361673
  27.3520113  47.9323833  15.4101673  26.0480113  47.6983833  15.0581673
  26.6260113  47.6963833  15.5871673  30.5040113  50.1963833  14.2401673
  30.8500113  50.4663833  14.9941673  30.7980113  50.7783833  13.6601673
  30.5990113  50.3223833  14.2661673  19.8100113  41.8553833   8.8121673
  20.2500113  41.7523833   8.0661673  20.3550113  41.5423833   9.4171673
  19.9550113  41.7943833   8.7911673  27.8260113  40.9573833  14.4041673
  27.1780113  41.4273833  14.7521673  28.3910113  40.8683833  15.0631673
  27.8140113  41.0133833  14.5531673  27.5140113  42.4943833  10.7021673
  27.8160113  42.9143833  11.4051673  27.5500113  41.6543833  10.9341673
  27.5640113  42.4323833  10.8401673  24.9390113  52.6613833  14.6271673
  25.4170113  52.0613833  14.2111673  24.5880113  52.2183833  15.2921673
  24.9580113  52.5073833  14.6641673  30.0620113  41.9413833   2.9541673
  30.2690113  41.7403833   3.7781673  30.8180113  42.2093833   2.6121673
  30.2040113  41.9513833   3.0251673  23.3570113  36.8403833   8.8591673
  22.5310113  36.6913833   9.0961673  23.3170113  36.8753833   7.9881673
  23.2290113  36.8233833   8.7651673  31.0840113  38.0243833   4.4281673
  30.3700113  37.5533833   4.5991673  30.9220113  38.3653833   3.6421673
  30.9550113  38.0053833   4.3371673  31.5270113  45.9683833   2.8081673
  32.0030113  45.2393833   2.7601673  30.7060113  45.6823833   2.7321673
  31.4760113  45.8183833   2.7891673  24.9980113  47.8803833  13.6471673
  24.2030113  47.8163833  13.9981673  25.0690113  48.7273833  13.4521673
  24.8910113  47.9953833  13.6701673  15.9220113  37.2383833  14.8941673
  15.7820113  38.0333833  14.5631673  15.1360113  36.9953833  15.1831673
  15.7850113  37.3203833  14.8881673  20.8280113  54.0873833   8.9641673
  20.8390113  54.1463833   9.8341673  20.4030113  53.3403833   8.8141673
  20.7670113  53.9853833   9.0701673  27.7430113  47.1353833   5.1631673
  27.8190113  47.4763833   5.9621673  27.9120113  46.2883833   5.2841673
  27.7790113  47.0603833   5.2991673  25.2650113  46.4093833   4.7281673
  24.9670113  46.0943833   5.4851673  25.9600113  46.8823833   4.9631673
  25.3240113  46.4323833   4.8751673  25.4870113  50.5273833  12.7551673
  26.1740113  50.4133833  13.2801673  25.6210113  51.3183833  12.4111673
  25.6080113  50.6273833  12.7821673  33.6630113  43.1363833  14.5661673
  32.8080113  43.0143833  14.6921673  33.8160113  42.7413833  13.8031673
  33.5590113  43.0593833  14.4721673  28.1760113  43.8013833  13.1421673
  27.9210113  43.0823833  13.5641673  28.9970113  43.9173833  13.4121673
  28.2600113  43.7123833  13.2441673  17.5920113  53.5853833  14.4061673
  16.9380113  53.0163833  14.5041673  17.2170113  54.3583833  14.5571673
  17.4400113  53.6153833  14.4431673  26.1100113  44.9913833  16.3291673
  26.4330113  45.6773833  15.8971673  25.4060113  45.3143833  16.7311673
  26.0530113  45.1403833  16.3241673  29.1940113  53.3653833   7.2581673
  28.7430113  54.0083833   7.6371673  29.9020113  53.2863833   7.7631673
  29.2320113  53.4483833   7.3891673  25.8950113  48.4553833  10.1881673
  25.2010113  48.8573833  10.5311673  26.5720113  48.8883833  10.5271673
  25.8920113  48.5783833  10.2891673  31.2720113  51.0483833  16.7681673
  32.0480113  50.6583833  16.8511673  30.8030113  50.7123833  17.4231673
  31.3170113  50.9413833  16.8771673  18.9630113  41.9933833  12.5351673
  19.3380113  42.6123833  12.0481673  19.6370113  41.5193833  12.8201673
  19.1180113  42.0153833  12.5051673  16.7380113  40.4413833  11.8101673
  16.8150113  40.2723833  10.9571673  17.4840113  40.8473833  12.0071673
  16.8590113  40.4763833  11.7131673  19.2920113  37.8513833  14.2211673
  19.2110113  37.0073833  14.4271673  18.9780113  37.8953833  13.4081673
  19.2340113  37.7333833  14.1311673  26.2170113  50.0463833   3.3571673
  26.0120113  50.8793833   3.1981673  25.4420113  49.6643833   3.4791673
  26.0720113  50.1133833   3.3521673  31.3990113  43.2273833  11.6061673
  31.3970113  42.3643833  11.7301673  31.4660113  43.5513833  12.4131673
  31.4090113  43.1473833  11.7431673  16.1350113  45.6673833  12.0341673
  16.4550113  45.8863833  11.2531673  16.0350113  44.8023833  11.9791673
  16.1670113  45.5723833  11.9111673  27.2780113  38.0273833  15.3881673
  27.3700113  38.7393833  15.8821673  26.6410113  37.5823833  15.7851673
  27.1970113  38.0663833  15.5201673  26.2720113  38.2173833   6.2421673
  25.5720113  38.7353833   6.1861673  26.3100113  37.8373833   5.4581673
  26.1740113  38.2383833   6.1181673  29.8700113  38.7333833   9.0421673
  30.7250113  38.8323833   9.1871673  29.5010113  39.2863833   9.6071673
  29.9420113  38.8303833   9.1471673  20.8980113  44.9593833  13.4191673
  20.5020113  45.7333833  13.4941673  20.4920113  44.5863833  12.7431673
  20.7800113  45.0183833  13.3301673  30.1740113  44.0133833   7.5331673
  30.8400113  44.5543833   7.6931673  29.8290113  44.3243833   6.7941673
  30.2210113  44.1393833   7.4481673  30.4870113  52.0793833   3.3401673
  30.3130113  51.4253833   3.8901673  31.2000113  51.8083833   2.9171673
  30.5670113  51.9423833   3.3591673  21.3270113  37.9363833  10.8691673
  20.4630113  38.0203833  10.9491673  21.5470113  37.4223833  11.5381673
  21.2320113  37.8733833  10.9801673  33.3450113  36.5713833  12.1981673
  33.2930113  36.5273833  13.0681673  34.0320113  36.0683833  12.0081673
  33.4390113  36.4913833  12.2981673  25.4300113  38.6843833   9.2431673
  24.6930113  38.2303833   9.3561673  26.0010113  38.2823833   9.7661673
  25.4050113  38.5573833   9.3371673  28.1620113  49.5323833  11.0311673
  28.3680113  49.8333833  11.8231673  28.1010113  50.2543833  10.5461673
  28.1830113  49.6833833  11.0761673  27.6960113  53.7463833  15.2771673
  26.9430113  53.7283833  14.8361673  27.8640113  54.5983833  15.3611673
  27.6100113  53.8693833  15.2241673  22.9330113  43.0133833  14.4471673
  22.6110113  42.4373833  13.8771673  22.5740113  43.7683833  14.2011673
  22.8330113  43.0393833  14.3271673  32.9740113  48.1713833  10.4891673
  32.9420113  47.3093833  10.3541673  32.2810113  48.4733833  10.0551673
  32.8670113  48.0883833  10.4051673  21.3680113  53.3693833  14.6951673
  21.4090113  53.4953833  15.5581673  22.0190113  52.8093833  14.5391673
  21.4700113  53.3053833  14.8001673  31.0790113  51.4313833   9.2861673
  31.6060113  51.3483833   8.5951673  30.6880113  50.6533833   9.3401673
  31.0990113  51.3043833   9.1921673  18.5470113  38.0193833  11.5171673
  18.2040113  37.2523833  11.2831673  17.8520113  38.5433833  11.5811673
  18.3940113  37.9833833  11.4921673  27.5930113  36.8753833   8.4941673
  28.2630113  37.4193833   8.6211673  27.0900113  37.2993833   7.9211673
  27.6180113  37.0183833   8.4281673  18.9610113  51.7523833  16.0551673
  19.5560113  52.1833833  16.5271673  18.5970113  52.3763833  15.5661673
  18.9950113  51.9083833  16.0521673  26.9520113  42.6833833   5.9871673
  27.5030113  42.0763833   6.2871673  26.5270113  42.9463833   6.7021673
  26.9710113  42.6323833   6.1361673  17.2000113  41.3333833   5.4731673
  16.8320113  41.6353833   6.2041673  17.7340113  40.7043833   5.7571673
  17.2240113  41.2853833   5.6231673  16.8880113  49.7413833  12.9841673
  16.3140113  50.1573833  13.4931673  17.6210113  50.2063833  13.0791673
  16.9120113  49.8713833  13.0731673  28.9220113  44.5143833   2.5491673
  28.9900113  43.6643833   2.7301673  28.0990113  44.6003833   2.2711673
  28.8100113  44.4013833   2.5351673  32.1960113  45.8873833  15.7001673
  32.8300113  45.7173833  16.2741673  32.6130113  46.2903833  15.0481673
  32.3510113  45.9223833  15.6891673  32.8210113  40.4513833  16.4381673
  32.6250113  41.0953833  16.9931673  32.0990113  39.9613833  16.4301673
  32.6860113  40.4743833  16.5191673  32.7200113  41.3923833   9.4091673
  31.8870113  41.6423833   9.3371673  32.6640113  40.5523833   9.6381673
  32.5890113  41.3053833   9.4321673  21.9800113  38.3803833  14.6031673
  22.2140113  37.8043833  13.9901673  21.1380113  38.1993833  14.7441673
  21.8900113  38.2683833  14.5331673  29.6070113  45.9983833  17.0551673
  30.4780113  45.9623833  17.0191673  29.3880113  46.4183833  16.3231673
  29.7040113  46.0543833  16.9421673  19.3610113  51.8233833   8.2361673
  19.2820113  51.0133833   7.9201673  18.9170113  52.3103833   7.6641673
  19.2840113  51.7753833   8.1051673  16.9330113  54.0673833  11.8171673
  17.4260113  54.0113833  12.5351673  17.1210113  53.3343833  11.3821673
  17.0340113  53.9503833  11.8591673  26.3710113  18.1052753  79.9891313
  26.1260113  18.5932753  79.3091313  27.2340113  18.0322753  79.8891313
  26.4620113  18.1662753  79.8741313  26.1800113  25.0212753  84.6601313
  25.6560113  25.6172753  85.0231313  26.5770113  24.6532753  85.3441313
  26.1610113  25.0552753  84.8151313  16.0490113  29.1612753  80.1161313
  15.6080113  29.2792753  80.8591313  15.7660113  28.3862753  79.8311313
  15.9420113  29.0642753  80.1841313  32.3240113  32.4622753  77.6311313
  33.0250113  31.9432753  77.6271313  31.7370113  32.0172753  77.1621313
  32.3410113  32.3192753  77.5611313  15.7920113  22.9532753  76.6231313
  15.0140113  23.1152753  76.2631313  15.8310113  22.0822753  76.6451313
  15.6830113  22.8482753  76.5731313  18.9310113  28.2162753  75.2951313
  18.5390113  27.8452753  74.6091313  18.8510113  27.6182753  75.9241313
  18.8610113  28.0732753  75.2861313  28.8510113  26.0882753  81.3361313
  28.9310113  26.0922753  80.4671313  28.2670113  25.4562753  81.4851313
  28.7760113  25.9952753  81.2301313  18.5580113  29.8572753  79.1951313
  19.1660113  29.6872753  79.7981313  17.8070113  29.7172753  79.6161313
  18.5370113  29.8112753  79.3461313  22.8400113  19.1922753  79.1441313
  22.7700113  19.8692753  78.5981313  23.5810113  18.8042753  78.8951313
  22.9390113  19.2352753  79.0261313  17.4490113  32.9482753  75.2721313
  17.9160113  33.0322753  74.5401313  17.9040113  32.3702753  75.7411313
  17.5850113  32.8752753  75.2331313  15.9890113  31.8962753  86.3711313
  16.1180113  31.6162753  87.1871313  15.3790113  31.3552753  86.0621313
  15.9180113  31.7752753  86.4461313  17.4350113  26.4172753  80.5731313
  16.9730113  26.0252753  79.9461313  18.1350113  25.9042753  80.6651313
  17.4700113  26.2842753  80.4941313  21.9430113  22.0272753  85.9201313
  22.6210113  22.0452753  85.3711313  21.8980113  21.1912753  86.1651313
  22.0360113  21.9062753  85.8751313  22.5450113  32.6132753  88.7011313
  22.6830113  33.3732753  88.2941313  23.3360113  32.2482753  88.7281313
  22.6820113  32.6722753  88.6451313  19.4360113  24.5172753  80.5961313
  20.2530113  24.3302753  80.8391313  18.9590113  23.9032753  80.9921313
  19.4860113  24.3992753  80.6911313  23.6400113  30.4982753  83.2061313
  23.9880113  29.6992753  83.2361313  24.3050113  31.0022753  82.9511313
  23.7900113  30.4542753  83.1731313  23.6970113  29.9472753  79.4171313
  24.0280113  29.3032753  79.9031313  23.9370113  29.7362753  78.6061313
  23.7810113  29.8212753  79.3691313  20.0330113  19.6112753  79.8621313
  19.7370113  20.1122753  79.2121313  20.9000113  19.6892753  79.8051313
  20.1170113  19.6972753  79.7581313  23.0120113  18.7532753  82.0851313
  23.0850113  19.6132753  82.2141313  22.9740113  18.6782753  81.2171313
  23.0170113  18.8692753  81.9761313  27.6850113  21.6792753  74.3841313
  27.2350113  22.3602753  74.6911313  27.7990113  21.1752753  75.0871313
  27.6360113  21.7052753  74.5331313  15.8910113  24.1782753  83.5861313
  15.6350113  25.0092753  83.5111313  15.2270113  23.7952753  84.0031313
  15.7550113  24.2442753  83.6371313  15.8010113  33.8882753  81.4861313
  15.2090113  34.4462753  81.1731313  16.2270113  33.6192753  80.7741313
  15.7770113  33.9302753  81.3351313  21.6410113  31.7322753  78.9661313
  21.0620113  31.4572753  79.5581313  22.2650113  31.1232753  78.9911313
  21.6480113  31.6022753  79.0571313  27.7840113  34.0202753  76.4881313
  28.5110113  34.4922753  76.5901313  28.0130113  33.2262753  76.7681313
  27.9260113  33.9732753  76.5451313  25.9520113  34.4122753  78.4781313
  26.1660113  34.9392753  79.1401313  26.7190113  34.2382753  78.0991313
  26.0970113  34.4642753  78.5201313  18.9200113  18.9952753  84.0771313
  18.3990113  18.3672753  83.7691313  19.5110113  18.5582753  84.5481313
  18.9310113  18.8372753  84.1011313  17.3460113  32.5582753  79.4171313
  18.0020113  31.9832753  79.4321313  17.7350113  33.3072753  79.1961313
  17.5010113  32.5832753  79.3871313  33.0790113  21.6522753  80.6791313
  32.7330113  22.3302753  81.1051313  32.4430113  21.0542753  80.6951313
  32.9340113  21.6642753  80.7441313  28.3910113  34.4222753  86.7831313
  29.1350113  34.8782753  86.7731313  28.2700113  34.2082753  85.9461313
  28.4830113  34.4582753  86.6581313  18.1640113  31.0452753  82.9171313
  18.5870113  30.6892753  82.2431313  18.4880113  30.6232753  83.6091313
  18.2740113  30.9302753  82.9201313  21.3950113  33.8972753  82.2131313
  22.2390113  34.0012753  82.0181313  21.0980113  34.7152753  82.2811313
  21.4760113  34.0332753  82.1941313  25.2020113  23.2942753  80.3001313
  25.4890113  23.0622753  79.5101313  25.9340113  23.3732753  80.7691313
  25.3520113  23.2712753  80.2531313  25.9240113  23.6332753  75.4211313
  26.2050113  24.4212753  75.6701313  25.1480113  23.7982753  75.0581313
  25.8510113  23.7742753  75.4041313  29.9650113  35.6072753  76.8881313
  30.6300113  35.4592753  76.3431313  30.3250113  35.5242753  77.6781313
  30.1170113  35.5732753  76.9241313  20.3930113  35.1162753  87.9531313
  20.6850113  35.0492753  88.7731313  19.7670113  34.5112753  87.9081313
  20.3440113  35.0172753  88.0681313  32.7540113  19.9752753  86.0481313
  33.5110113  20.0472753  85.6201313  32.8170113  19.2022753  86.4471313
  32.8750113  19.8722753  86.0431313  24.7830113  31.8042753  75.2371313
  24.6020113  32.3492753  75.8941313  25.5490113  32.0942753  74.9361313
  24.8690113  31.9282753  75.2901313  28.2900113  19.7002753  76.2911313
  28.8300113  19.0182753  76.3671313  28.3520113  20.0982753  77.0651313
  28.3790113  19.6582753  76.4171313  16.2440113  20.8682753  78.8601313
  16.1300113  20.0042753  78.8911313  15.7690113  21.1622753  79.5301313
  16.1570113  20.7842753  78.9631313  18.3860113  33.2782753  87.0751313
  17.6880113  32.7702753  87.2011313  18.6460113  33.0732753  86.2671313
  18.3210113  33.1732753  86.9741313  25.5480113  22.0762753  77.6051313
  25.0400113  21.4142753  77.3511313  25.6000113  22.5802753  76.8951313
  25.4810113  22.0532753  77.4631313  26.0970113  34.7712753  87.9851313
  26.8650113  34.6912753  87.5791313  25.5140113  34.6502753  87.3471313
  26.1240113  34.7412753  87.8311313  25.5480113  19.0172753  77.4961313
  25.0930113  18.6152753  76.8701313  26.3210113  19.1722753  77.1211313
  25.5950113  18.9812753  77.3481313  32.3740113  35.3742753  80.8861313
  31.9190113  36.0912753  81.0871313  31.7600113  34.8032753  80.6441313
  32.2160113  35.3962753  80.8801313  24.1460113  21.3842753  82.0181313
  24.2200113  21.9522753  81.3601313  24.2670113  21.8762753  82.7281313
  24.1740113  21.5412753  82.0261313  29.3710113  31.2192753  80.4301313
  30.0720113  30.7372753  80.6191313  28.7110113  30.6502753  80.4751313
  29.3770113  31.0642753  80.4641313  18.7540113  17.2072753  80.3661313
  19.2900113  17.8952753  80.3561313  18.7570113  16.9332753  79.5381313
  18.8330113  17.2682753  80.2421313  21.7100113  27.6402753  84.3911313
  21.8820113  27.4302753  85.2201313  21.0550113  27.1062753  84.1751313
  21.6390113  27.5302753  84.4821313  27.9380113  21.5542753  87.9061313
  27.8430113  21.8732753  88.7121313  27.3450113  20.9152753  87.8681313
  27.8360113  21.5062753  88.0201313  22.4600113  27.5782753  86.9811313
  22.5130113  28.4252753  87.1831313  22.1750113  27.2082753  87.7181313
  22.4260113  27.6482753  87.1191313  28.6370113  28.2732753  86.1111313
  28.1230113  27.8612753  86.6821313  28.5110113  29.1172753  86.2921313
  28.5430113  28.3372753  86.2221313  29.1940113  17.4982753  80.7421313
  29.2430113  17.1802753  81.5531313  29.5170113  16.8542753  80.2491313
  29.2490113  17.3562753  80.7891313  31.6580113  21.7342753  89.0501313
  32.4300113  21.5092753  89.3871313  31.1830113  21.9512753  89.7501313
  31.7020113  21.7332753  89.2031313  19.2020113  21.0172753  82.0201313
  19.4740113  20.5872753  81.3121313  19.0260113  20.3812753  82.5911313
  19.2160113  20.8602753  82.0001313  31.8900113  28.7122753  76.2381313
  32.0090113  28.4252753  77.0531313  32.6970113  28.7332753  75.9081313
  32.0260113  28.6732753  76.3101313  19.0260113  28.4442753  81.5691313
  19.8770113  28.3642753  81.3961313  18.6690113  27.7622753  81.1571313
  19.0990113  28.3312753  81.4821313  17.7930113  35.1692753  82.8061313
  17.1200113  34.6712753  82.5611313  18.1960113  35.3542753  82.0551313
  17.7530113  35.1232753  82.6591313  17.3430113  22.1192753  85.1021313
  18.1860113  22.3392753  85.0591313  16.9540113  22.6922753  84.5711313
  17.4100113  22.2362753  85.0171313  29.7850113  25.2492753  75.8231313
  29.5650113  25.9802753  75.4011313  29.3370113  25.3002753  76.5701313
  29.6860113  25.3642753  75.8711313  21.3940113  28.4512753  79.8041313
  22.1070113  28.9462753  79.8941313  21.6160113  27.8842753  79.1781313
  21.5320113  28.4402753  79.7251313  33.9720113  20.1102753  75.2761313
  33.3100113  19.5422753  75.2991313  33.7790113  20.6222753  74.5961313
  33.8460113  20.1022753  75.1791313  15.5500113  30.0942753  83.1241313
  14.8830113  30.5822753  83.4001313  16.2300113  30.6392753  83.1531313
  15.5520113  30.2462753  83.1691313  34.2950113  24.4882753  87.8321313
  34.5100113  23.6882753  87.5561313  33.4450113  24.5482753  87.6431313
  34.2010113  24.3792753  87.7631313  15.6160113  26.7782753  78.2271313
  15.4310113  25.9392753  78.3791313  16.2750113  26.7422753  77.6571313
  15.6860113  26.6492753  78.1651313  31.9740113  19.6682753  77.5551313
  32.7200113  19.2612753  77.7541313  32.2370113  20.3832753  77.1301313
  32.1230113  19.7142753  77.5221313  25.9170113  32.1542753  82.1311313
  25.3940113  32.7882753  81.8381313  26.2270113  31.7902753  81.4021313
  25.8850113  32.1942753  81.9801313  15.7880113  30.9422753  77.8021313
  16.3400113  31.5112753  78.1661313  15.5560113  30.4272753  78.4671313
  15.8350113  30.9502753  77.9541313  19.9920113  29.9422753  84.8911313
  20.4590113  30.2312753  85.5691313  20.5640113  29.4642753  84.4371313
  20.1460113  29.9142753  84.9241313  28.4280113  21.9562753  82.6281313
  28.7720113  22.1082753  83.4151313  27.9750113  21.2182753  82.7411313
  28.4120113  21.8692753  82.7611313  15.6180113  29.3912753  75.4301313
  16.3740113  28.9592753  75.4881313  15.6330113  29.9232753  76.1211313
  15.7320113  29.4062753  75.5411313  16.5580113  27.6122753  83.4351313
  16.9890113  27.4832753  82.6881313  16.3530113  28.4602753  83.4091313
  16.5910113  27.7182753  83.3211313  22.9040113  21.1762753  77.0851313
  22.9020113  21.0592753  76.2201313  22.7230113  22.0242753  77.1771313
  22.8770113  21.2842753  76.9711313  31.9580113  33.6032753  88.5821313
  31.2870113  34.1172753  88.8001313  32.0210113  33.7032753  87.7181313
  31.8680113  33.6942753  88.4871313  20.6420113  31.1282753  81.7171313
  20.7680113  31.9712753  81.9041313  21.3100113  30.7292753  82.1131313
  20.7600113  31.1942753  81.8031313  19.2570113  24.0082753  76.7191313
  19.1290113  23.5602753  77.4571313  18.6750113  23.6662753  76.1671313
  19.1520113  23.8912753  76.7471313  19.4240113  25.8382753  83.3181313
  18.6430113  25.7792753  82.9351313  19.4960113  25.0862753  83.7551313
  19.3190113  25.7192753  83.3261313  19.8540113  25.5752753  86.7861313
  19.8790113  24.9002753  86.2351313  19.2080113  26.0712753  86.4741313
  19.7630113  25.5482753  86.6591313  29.7490113  23.2882753  85.1821313
  29.0870113  23.6162753  85.6451313  29.9360113  23.9222753  84.6131313
  29.6790113  23.4302753  85.1661313  23.9540113  34.3522753  86.1781313
  23.6770113  33.7112753  85.6551313  23.7460113  35.0782753  85.7401313
  23.8830113  34.3652753  86.0361313  26.3940113  19.1942753  88.6111313
  26.5430113  18.3692753  88.3681313  26.7730113  19.2492753  89.3951313
  26.4720113  19.0802753  88.6911313  27.9420113  21.2572753  78.6931313
  28.4320113  21.9742753  78.6161313  27.1520113  21.5182753  78.4301313
  27.8980113  21.4012753  78.6431313  24.5240113  22.7272753  84.4181313
  25.0040113  23.4262753  84.6261313  24.8970113  22.0802753  84.8691313
  24.6500113  22.7352753  84.5151313  26.7130113  25.8962753  76.6921313
  26.7050113  26.6182753  76.2021313  26.0740113  26.0312753  77.2691313
  26.6180113  26.0232753  76.7051313  31.6850113  29.7662753  80.6731313
  32.0410113  29.4162753  81.3881313  31.6770113  29.1052753  80.1031313
  31.7370113  29.6162753  80.6941313  27.7300113  32.8322753  84.5171313
  27.1270113  32.5362753  83.9601313  28.2750113  33.2842753  84.0081313
  27.7210113  32.8552753  84.3591313  27.7430113  29.6832753  83.9171313
  26.9460113  29.9072753  84.1911313  28.0010113  29.0892753  84.5021313
  27.6630113  29.6282753  84.0441313  21.6350113  34.4952753  78.3651313
  21.4880113  33.7192753  78.7361313  22.3240113  34.3482753  77.8501313
  21.7150113  34.3582753  78.3441313  21.3060113  18.2382753  76.3531313
  21.4030113  18.1312753  77.2141313  20.5980113  18.7442753  76.2881313
  21.2160113  18.2972753  76.4711313  23.9270113  34.0112753  76.7671313
  24.5490113  34.1742753  77.3571313  23.9630113  34.7022753  76.2351313
  24.0240113  34.1372753  76.7761313  31.0030113  27.6812753  88.7631313
  31.0580113  27.8062753  87.9011313  31.7560113  28.0012753  89.0651313
  31.1220113  27.7462753  88.6801313  18.4280113  26.5452753  77.5961313
  18.7520113  25.7662753  77.3741313  19.0740113  26.9132753  78.0511313
  18.5710113  26.4842753  77.6301313  26.7340113  27.4872753  88.3631313
  26.5790113  28.0972753  88.9671313  27.2680113  26.9292753  88.7691313
  26.7900113  27.4952753  88.5121313  15.4250113  18.2062753  78.5641313
  15.5540113  17.4982753  78.0721313  15.0580113  17.8882753  79.2891313
  15.3900113  18.0542753  78.5991313  25.1180113  25.8872753  79.0211313
  25.1770113  26.5372753  79.6001313  24.9290113  25.1912753  79.5121313
  25.0990113  25.8802753  79.1791313  30.3440113  30.2162753  84.8901313
  29.8650113  30.5142753  84.2241313  29.9880113  29.4402753  85.0681313
  30.2210113  30.1452753  84.8181313  19.6140113  20.4042753  75.5331313
  19.1030113  20.4572753  74.8271313  20.3980113  20.6442753  75.2371313
  19.6540113  20.4472753  75.3851313  24.3410113  27.9342753  83.4521313
  23.4940113  27.7402753  83.5331313  24.6650113  27.7692753  84.2451313
  24.2630113  27.8812753  83.5811313  21.0930113  34.6642753  74.3381313
  21.5320113  33.9672753  74.6261313  21.3000113  35.2882753  74.9111313
  21.1890113  34.6532753  74.4651313  18.1890113  27.6272753  85.7681313
  18.9110113  28.1152753  85.7311313  17.9190113  27.5972753  84.9391313
  18.2560113  27.6952753  85.6401313  21.4190113  22.7982753  82.5031313
  22.2650113  22.6082753  82.6011313  21.0490113  22.0212753  82.3651313
  21.4890113  22.6552753  82.4971313  34.0360113  34.3822753  76.8301313
  34.7300113  33.9152753  76.5821313  33.4970113  33.7842753  77.1671313
  34.0590113  34.2242753  76.8431313  16.2400113  24.1362753  79.1581313
  16.7290113  23.8442753  79.8191313  16.3690113  23.5432753  78.5311313
  16.3310113  24.0052753  79.1631313  31.2750113  27.1582753  86.0091313
  31.2680113  26.3822753  86.4071313  30.4340113  27.3922753  86.0021313
  31.1500113  27.0782753  86.0671313  20.7650113  25.5702753  74.6441313
  20.1550113  25.1652753  75.1181313  20.3790113  25.6882753  73.8711313
  20.6180113  25.5272753  74.6001313  17.5840113  28.6792753  90.0461313
  17.1630113  28.1612753  89.4851313  17.2320113  29.4652753  89.9031313
  17.4700113  28.7192753  89.9421313  32.5310113  27.2292753  83.4461313
  32.2450113  27.6302753  84.1661313  33.3910113  27.1672753  83.5731313
  32.6160113  27.2792753  83.5711313  22.2200113  24.0312753  77.3541313
  22.4920113  24.8572753  77.4211313  21.3570113  24.1062753  77.2581313
  22.1330113  24.1642753  77.3491313  15.7000113  20.0012753  83.8901313
  15.7440113  20.3452753  83.0891313  16.4550113  20.2382753  84.2571313
  15.8180113  20.0872753  83.8261313  33.6620113  32.8622753  83.9751313
  33.9520113  33.1192753  83.1941313  34.3570113  32.9582753  84.4941313
  33.8080113  32.9142753  83.9361313  30.2670113  31.4652753  75.9571313
  30.6010113  30.6592753  75.9921313  29.5120113  31.3932753  76.3871313
  30.2050113  31.3352753  76.0261313  30.7490113  23.2992753  81.6161313
  30.0040113  22.9762753  81.9341313  30.7510113  24.1252753  81.8961313
  30.6390113  23.3732753  81.7041313  33.1890113  29.2592753  89.3681313
  33.8170113  28.7102753  89.1121313  33.1280113  29.8242753  88.7061313
  33.2730113  29.2622753  89.2321313  27.6410113  29.3402753  75.3601313
  28.3250113  28.8262753  75.1911313  27.2240113  29.3862753  74.5951313
  27.6800113  29.2712753  75.2221313  22.3230113  30.4902753  86.6641313
  22.0250113  31.0822753  87.2311313  22.3780113  30.9322753  85.9151313
  22.2870113  30.6432753  86.6371313  29.6610113  19.6292753  89.0771313
  30.4050113  20.0812753  89.0141313  29.0950113  20.0992753  88.6081313
  29.6880113  19.7662753  88.9991313  24.8390113  26.9132753  86.1551313
  25.3150113  27.2872753  86.7831313  24.0160113  27.0472753  86.4141313
  24.7880113  26.9882753  86.2861313  21.5490113  22.5162753  88.8961313
  21.7100113  21.7722753  89.3231313  21.5040113  22.2672753  88.0611313
  21.5660113  22.3692753  88.8361313  24.1030113  34.3062753  81.3831313
  24.6490113  34.9852753  81.4371313  23.7530113  34.3882753  80.5881313
  24.1320113  34.4192753  81.2731313  30.9460113  17.6092753  86.7471313
  30.6660113  18.4342753  86.7031313  31.6620113  17.6622753  87.2431313
  31.0110113  17.7392753  86.8141313  23.3010113  18.3242753  88.7761313
  24.0060113  18.6442753  88.3741313  23.5420113  17.5172753  89.0031313
  23.4400113  18.2522753  88.7501313  22.2860113  32.5342753  84.7721313
  21.6620113  33.1162753  84.5901313  22.5340113  32.2482753  83.9861313
  22.2300113  32.5782753  84.6291313  32.3670113  23.8642753  75.6041313
  32.7450113  24.5412753  75.2041313  31.5250113  24.0882753  75.6351313
  32.2980113  23.9972753  75.5491313  23.8800113  27.3102753  74.6871313
  23.0750113  27.1332753  74.4021313  23.8470113  28.1612753  74.8791313
  23.7560113  27.4092753  74.6741313  19.8100113  23.3772753  84.8371313
  20.2500113  23.2742753  84.0911313  20.3550113  23.0642753  85.4421313
  19.9550113  23.3162753  84.8161313  27.5140113  24.0162753  86.7271313
  27.8160113  24.4362753  87.4301313  27.5500113  23.1762753  86.9591313
  27.5640113  23.9542753  86.8651313  30.0620113  23.4632753  78.9791313
  30.2690113  23.2622753  79.8031313  30.8180113  23.7312753  78.6371313
  30.2040113  23.4732753  79.0501313  23.3570113  18.3622753  84.8841313
  22.5310113  18.2132753  85.1211313  23.3170113  18.3972753  84.0131313
  23.2290113  18.3452753  84.7901313  31.0840113  19.5462753  80.4531313
  30.3700113  19.0752753  80.6241313  30.9220113  19.8872753  79.6671313
  30.9550113  19.5272753  80.3621313  31.5270113  27.4902753  78.8331313
  32.0030113  26.7612753  78.7851313  30.7060113  27.2042753  78.7571313
  31.4760113  27.3402753  78.8141313  24.9980113  29.4022753  89.6721313
  24.2030113  29.3382753  90.0231313  25.0690113  30.2492753  89.4771313
  24.8910113  29.5172753  89.6951313  20.8280113  35.6092753  84.9891313
  20.8390113  35.6682753  85.8591313  20.4030113  34.8622753  84.8391313
  20.7670113  35.5072753  85.0951313  18.9860113  21.5042753  78.1441313
  19.1120113  21.1752753  77.3461313  18.1740113  21.2552753  78.3431313
  18.8850113  21.4192753  78.0561313  27.7430113  28.6572753  81.1881313
  27.8190113  28.9982753  81.9871313  27.9120113  27.8102753  81.3091313
  27.7790113  28.5822753  81.3241313  25.2650113  27.9312753  80.7531313
  24.9670113  27.6162753  81.5101313  25.9600113  28.4042753  80.9881313
  25.3240113  27.9542753  80.9001313  25.4870113  32.0492753  88.7801313
  26.1740113  31.9352753  89.3051313  25.6210113  32.8402753  88.4361313
  25.6080113  32.1492753  88.8071313  28.1760113  25.3232753  89.1671313
  27.9210113  24.6042753  89.5891313  28.9970113  25.4392753  89.4371313
  28.2600113  25.2342753  89.2691313  29.1940113  34.8872753  83.2831313
  28.7430113  35.5302753  83.6621313  29.9020113  34.8082753  83.7881313
  29.2320113  34.9702753  83.4141313  25.8950113  29.9772753  86.2131313
  25.2010113  30.3792753  86.5561313  26.5720113  30.4102753  86.5521313
  25.8920113  30.1002753  86.3141313  18.9630113  23.5152753  88.5601313
  19.3380113  24.1342753  88.0731313  19.6370113  23.0412753  88.8451313
  19.1180113  23.5372753  88.5301313  16.7380113  21.9632753  87.8351313
  16.8150113  21.7942753  86.9821313  17.4840113  22.3692753  88.0321313
  16.8590113  21.9982753  87.7381313  32.2970113  24.6032753  78.2751313
  32.4000113  24.5452753  77.4111313  33.0380113  24.2712753  78.5931313
  32.4220113  24.5462753  78.1941313  26.2170113  31.5682753  79.3821313
  26.0120113  32.4012753  79.2231313  25.4420113  31.1862753  79.5041313
  26.0720113  31.6352753  79.3771313  31.3990113  24.7492753  87.6311313
  31.3970113  23.8862753  87.7551313  31.4660113  25.0732753  88.4381313
  31.4090113  24.6692753  87.7681313  16.1350113  27.1892753  88.0591313
  16.4550113  27.4082753  87.2781313  16.0350113  26.3242753  88.0041313
  16.1670113  27.0942753  87.9361313  17.5910113  23.1252753  74.6771313
  16.9190113  23.1392753  75.2331313  17.6860113  22.2772753  74.4931313
  17.5060113  23.0022753  74.7321313  26.2720113  19.7392753  82.2671313
  25.5720113  20.2572753  82.2111313  26.3100113  19.3592753  81.4831313
  26.1740113  19.7602753  82.1431313  21.5790113  31.8302753  75.7911313
  22.0200113  31.9102753  76.5391313  20.7740113  31.6142753  76.0491313
  21.5250113  31.8102753  75.9401313  29.8700113  20.2552753  85.0671313
  30.7250113  20.3542753  85.2121313  29.5010113  20.8082753  85.6321313
  29.9420113  20.3522753  85.1721313  20.8980113  26.4812753  89.4441313
  20.5020113  27.2552753  89.5191313  20.4920113  26.1082753  88.7681313
  20.7800113  26.5402753  89.3551313  30.1740113  25.5352753  83.5581313
  30.8400113  26.0762753  83.7181313  29.8290113  25.8462753  82.8191313
  30.2210113  25.6612753  83.4731313  30.4870113  33.6012753  79.3651313
  30.3130113  32.9472753  79.9151313  31.2000113  33.3302753  78.9421313
  30.5670113  33.4642753  79.3841313  18.9080113  30.9002753  76.3921313
  18.6640113  30.5932753  77.1721313  18.8750113  30.1972753  75.8761313
  18.8670113  30.7512753  76.4311313  21.7270113  29.1452753  75.1351313
  20.9090113  28.8772753  75.2751313  21.6990113  29.9972753  75.3201313
  21.6020113  29.2322753  75.1831313  21.3270113  19.4582753  86.8941313
  20.4630113  19.5422753  86.9741313  21.5470113  18.9442753  87.5631313
  21.2320113  19.3952753  87.0051313  33.3450113  18.0932753  88.2231313
  33.2930113  18.0492753  89.0931313  34.0320113  17.5902753  88.0331313
  33.4390113  18.0132753  88.3231313  25.4300113  20.2062753  85.2681313
  24.6930113  19.7522753  85.3811313  26.0010113  19.8042753  85.7911313
  25.4050113  20.0792753  85.3621313  28.1620113  31.0542753  87.0561313
  28.3680113  31.3552753  87.8481313  28.1010113  31.7762753  86.5711313
  28.1830113  31.2052753  87.1011313  23.7290113  17.7872753  75.0991313
  23.8070113  18.0342753  74.2661313  22.9860113  18.1642753  75.3571313
  23.6310113  17.8792753  75.0141313  32.9740113  29.6932753  86.5141313
  32.9420113  28.8312753  86.3791313  32.2810113  29.9952753  86.0801313
  32.8670113  29.6102753  86.4301313  31.0790113  32.9532753  85.3111313
  31.6060113  32.8702753  84.6201313  30.6880113  32.1752753  85.3651313
  31.0990113  32.8262753  85.2171313  18.5470113  19.5412753  87.5421313
  18.2040113  18.7742753  87.3081313  17.8520113  20.0652753  87.6061313
  18.3940113  19.5052753  87.5171313  27.5930113  18.3972753  84.5191313
  28.2630113  18.9412753  84.6461313  27.0900113  18.8212753  83.9461313
  27.6180113  18.5402753  84.4531313  26.9520113  24.2052753  82.0121313
  27.5030113  23.5982753  82.3121313  26.5270113  24.4682753  82.7271313
  26.9710113  24.1542753  82.1611313  17.2000113  22.8552753  81.4981313
  16.8320113  23.1572753  82.2291313  17.7340113  22.2262753  81.7821313
  17.2240113  22.8072753  81.6481313  16.8880113  31.2632753  89.0091313
  16.3140113  31.6792753  89.5181313  17.6210113  31.7282753  89.1041313
  16.9120113  31.3932753  89.0981313  28.9220113  26.0362753  78.5741313
  28.9900113  25.1862753  78.7551313  28.0990113  26.1222753  78.2961313
  28.8100113  25.9232753  78.5601313  18.6740113  34.5302753  77.7841313
  18.5290113  34.6862753  76.9381313  19.5400113  34.6092753  77.8621313
  18.7810113  34.5652753  77.6711313  22.8410113  26.9272753  77.5121313
  22.9410113  27.0662753  76.6571313  23.6590113  26.8672753  77.8081313
  22.9760113  26.9382753  77.4291313  32.0010113  34.9912753  74.9921313
  32.6380113  34.8572753  75.5731313  31.6600113  34.1972753  74.8751313
  32.0450113  34.8542753  75.0601313  28.0760113  31.2562753  77.3141313
  27.8250113  31.1282753  78.1401313  27.7590113  30.5612753  76.8931313
  27.9920113  31.1352753  77.3741313  32.7200113  22.9142753  85.4341313
  31.8870113  23.1642753  85.3621313  32.6640113  22.0742753  85.6631313
  32.5890113  22.8272753  85.4571313  19.3610113  33.3452753  84.2611313
  19.2820113  32.5352753  83.9451313  18.9170113  33.8322753  83.6891313
  19.2840113  33.2972753  84.1301313  24.9620113  29.4642753  76.7441313
  25.6790113  29.1172753  76.3881313  24.9280113  30.2642753  76.3961313
  25.0630113  29.5312753  76.6401313  16.9330113  35.5892753  87.8421313
  17.4260113  35.5332753  88.5601313  17.1210113  34.8562753  87.4071313
  17.0340113  35.4722753  87.8841313  26.3710113  18.1052753  60.9828903
  26.1260113  18.5932753  60.3028903  27.2340113  18.0322753  60.8828903
  26.4620113  18.1662753  60.8678903  26.1800113  25.0212753  65.6538903
  25.6560113  25.6172753  66.0168903  26.5770113  24.6532753  66.3378903
  26.1610113  25.0552753  65.8088903  16.0490113  29.1612753  61.1098903
  15.6080113  29.2792753  61.8528903  15.7660113  28.3862753  60.8248903
  15.9420113  29.0642753  61.1778903  15.7920113  22.9532753  57.6168903
  15.0140113  23.1152753  57.2568903  15.8310113  22.0822753  57.6388903
  15.6830113  22.8482753  57.5668903  18.9310113  28.2162753  56.2888903
  18.5390113  27.8452753  55.6028903  18.8510113  27.6182753  56.9178903
  18.8610113  28.0732753  56.2798903  28.8510113  26.0882753  62.3298903
  28.9310113  26.0922753  61.4608903  28.2670113  25.4562753  62.4788903
  28.7760113  25.9952753  62.2238903  18.5580113  29.8572753  60.1888903
  19.1660113  29.6872753  60.7918903  17.8070113  29.7172753  60.6098903
  18.5370113  29.8112753  60.3398903  22.8400113  19.1922753  60.1378903
  22.7700113  19.8692753  59.5918903  23.5810113  18.8042753  59.8888903
  22.9390113  19.2352753  60.0198903  17.4490113  32.9482753  56.2658903
  17.9160113  33.0322753  55.5338903  17.9040113  32.3702753  56.7348903
  17.5850113  32.8752753  56.2268903  15.9890113  31.8962753  67.3648903
  16.1180113  31.6162753  68.1808903  15.3790113  31.3552753  67.0558903
  15.9180113  31.7752753  67.4398903  22.5630113  29.4212753  72.4318903
  22.3270113  29.4182753  73.2718903  21.8150113  29.2732753  72.0078903
  22.4170113  29.3982753  72.4928903  17.4350113  26.4172753  61.5668903
  16.9730113  26.0252753  60.9398903  18.1350113  25.9042753  61.6588903
  17.4700113  26.2842753  61.4878903  21.9430113  22.0272753  66.9138903
  22.6210113  22.0452753  66.3648903  21.8980113  21.1912753  67.1588903
  22.0360113  21.9062753  66.8688903  22.5450113  32.6132753  69.6948903
  22.6830113  33.3732753  69.2878903  23.3360113  32.2482753  69.7218903
  22.6820113  32.6722753  69.6388903  19.4360113  24.5172753  61.5898903
  20.2530113  24.3302753  61.8328903  18.9590113  23.9032753  61.9858903
  19.4860113  24.3992753  61.6848903  23.6400113  30.4982753  64.1998903
  23.9880113  29.6992753  64.2298903  24.3050113  31.0022753  63.9448903
  23.7900113  30.4542753  64.1668903  23.6970113  29.9472753  60.4108903
  24.0280113  29.3032753  60.8968903  23.9370113  29.7362753  59.5998903
  23.7810113  29.8212753  60.3628903  20.0330113  19.6112753  60.8558903
  19.7370113  20.1122753  60.2058903  20.9000113  19.6892753  60.7988903
  20.1170113  19.6972753  60.7518903  30.2230113  17.0382753  70.8638903
  30.0650113  17.8072753  70.4818903  29.4510113  16.8182753  71.2078903
  30.0850113  17.1192753  70.8588903  23.0120113  18.7532753  63.0788903
  23.0850113  19.6132753  63.2078903  22.9740113  18.6782753  62.2108903
  23.0170113  18.8692753  62.9698903  27.6850113  21.6792753  55.3778903
  27.2350113  22.3602753  55.6848903  27.7990113  21.1752753  56.0808903
  27.6360113  21.7052753  55.5268903  15.8910113  24.1782753  64.5798903
  15.6350113  25.0092753  64.5048903  15.2270113  23.7952753  64.9968903
  15.7550113  24.2442753  64.6308903  15.8010113  33.8882753  62.4798903
  15.2090113  34.4462753  62.1668903  16.2270113  33.6192753  61.7678903
  15.7770113  33.9302753  62.3288903  21.6410113  31.7322753  59.9598903
  21.0620113  31.4572753  60.5518903  22.2650113  31.1232753  59.9848903
  21.6480113  31.6022753  60.0508903  27.7840113  34.0202753  57.4818903
  28.5110113  34.4922753  57.5838903  28.0130113  33.2262753  57.7618903
  27.9260113  33.9732753  57.5388903  25.9520113  34.4122753  59.4718903
  26.1660113  34.9392753  60.1338903  26.7190113  34.2382753  59.0928903
  26.0970113  34.4642753  59.5138903  18.9200113  18.9952753  65.0708903
  18.3990113  18.3672753  64.7628903  19.5110113  18.5582753  65.5418903
  18.9310113  18.8372753  65.0948903  22.2260113  21.1282753  74.3688903
  22.3430113  20.6742753  73.6328903  22.5140113  21.9262753  74.1658903
  22.2860113  21.1792753  74.2298903  17.3460113  32.5582753  60.4108903
  18.0020113  31.9832753  60.4258903  17.7350113  33.3072753  60.1898903
  17.5010113  32.5832753  60.3808903  33.0790113  21.6522753  61.6728903
  32.7330113  22.3302753  62.0988903  32.4430113  21.0542753  61.6888903
  32.9340113  21.6642753  61.7378903  28.3910113  34.4222753  67.7768903
  29.1350113  34.8782753  67.7668903  28.2700113  34.2082753  66.9398903
  28.4830113  34.4582753  67.6518903  17.9590113  20.7252753  73.3528903
  17.1810113  20.3352753  73.2808903  18.4500113  20.3132753  72.7618903
  17.9160113  20.6062753  73.2548903  18.1640113  31.0452753  63.9108903
  18.5870113  30.6892753  63.2368903  18.4880113  30.6232753  64.6028903
  18.2740113  30.9302753  63.9138903  21.3950113  33.8972753  63.2068903
  22.2390113  34.0012753  63.0118903  21.0980113  34.7152753  63.2748903
  21.4760113  34.0332753  63.1878903  24.6080113  18.3682753  72.5208903
  24.7860113  17.5592753  72.2458903  24.4650113  18.8092753  71.7818903
  24.6130113  18.3142753  72.3708903  25.2020113  23.2942753  61.2938903
  25.4890113  23.0622753  60.5038903  25.9340113  23.3732753  61.7628903
  25.3520113  23.2712753  61.2468903  25.9240113  23.6332753  56.4148903
  26.2050113  24.4212753  56.6638903  25.1480113  23.7982753  56.0518903
  25.8510113  23.7742753  56.3978903  20.3930113  35.1162753  68.9468903
  20.6850113  35.0492753  69.7668903  19.7670113  34.5112753  68.9018903
  20.3440113  35.0172753  69.0618903  32.7540113  19.9752753  67.0418903
  33.5110113  20.0472753  66.6138903  32.8170113  19.2022753  67.4408903
  32.8750113  19.8722753  67.0368903  15.3070113  21.2732753  70.9388903
  15.3030113  21.8602753  71.5848903  15.9010113  21.5852753  70.3818903
  15.3940113  21.4062753  70.9518903  27.6450113  31.6072753  71.4808903
  27.6110113  31.9892753  72.2648903  28.4990113  31.5652753  71.3098903
  27.7660113  31.6572753  71.5718903  24.7830113  31.8042753  56.2308903
  24.6020113  32.3492753  56.8878903  25.5490113  32.0942753  55.9298903
  24.8690113  31.9282753  56.2838903  28.2900113  19.7002753  57.2848903
  28.8300113  19.0182753  57.3608903  28.3520113  20.0982753  58.0588903
  28.3790113  19.6582753  57.4108903  16.2440113  20.8682753  59.8538903
  16.1300113  20.0042753  59.8848903  15.7690113  21.1622753  60.5238903
  16.1570113  20.7842753  59.9568903  18.3860113  33.2782753  68.0688903
  17.6880113  32.7702753  68.1948903  18.6460113  33.0732753  67.2608903
  18.3210113  33.1732753  67.9678903  25.5480113  22.0762753  58.5988903
  25.0400113  21.4142753  58.3448903  25.6000113  22.5802753  57.8888903
  25.4810113  22.0532753  58.4568903  26.0970113  34.7712753  68.9788903
  26.8650113  34.6912753  68.5728903  25.5140113  34.6502753  68.3408903
  26.1240113  34.7412753  68.8248903  25.5480113  19.0172753  58.4898903
  25.0930113  18.6152753  57.8638903  26.3210113  19.1722753  58.1148903
  25.5950113  18.9812753  58.3418903  24.1460113  21.3842753  63.0118903
  24.2200113  21.9522753  62.3538903  24.2670113  21.8762753  63.7218903
  24.1740113  21.5412753  63.0198903  19.7470113  32.1292753  70.6358903
  20.5880113  32.1922753  70.4138903  19.7100113  32.5262753  71.4118903
  19.8660113  32.1972753  70.7178903  18.7540113  17.2072753  61.3598903
  19.2900113  17.8952753  61.3498903  18.7570113  16.9332753  60.5318903
  18.8330113  17.2682753  61.2358903  21.7100113  27.6402753  65.3848903
  21.8820113  27.4302753  66.2138903  21.0550113  27.1062753  65.1688903
  21.6390113  27.5302753  65.4758903  27.9380113  21.5542753  68.8998903
  27.8430113  21.8732753  69.7058903  27.3450113  20.9152753  68.8618903
  27.8360113  21.5062753  69.0138903  22.4600113  27.5782753  67.9748903
  22.5130113  28.4252753  68.1768903  22.1750113  27.2082753  68.7118903
  22.4260113  27.6482753  68.1128903  28.6370113  28.2732753  67.1048903
  28.1230113  27.8612753  67.6758903  28.5110113  29.1172753  67.2858903
  28.5430113  28.3372753  67.2158903  29.1940113  17.4982753  61.7358903
  29.2430113  17.1802753  62.5468903  29.5170113  16.8542753  61.2428903
  29.2490113  17.3562753  61.7828903  15.2810113  31.9492753  74.1858903
  16.0370113  32.2982753  74.4438903  15.4580113  31.0962753  74.1288903
  15.4190113  31.8742753  74.2158903  31.6580113  21.7342753  70.0438903
  32.4300113  21.5092753  70.3808903  31.1830113  21.9512753  70.7438903
  31.7020113  21.7332753  70.1968903  19.2020113  21.0172753  63.0138903
  19.4740113  20.5872753  62.3058903  19.0260113  20.3812753  63.5848903
  19.2160113  20.8602753  62.9938903  19.0260113  28.4442753  62.5628903
  19.8770113  28.3642753  62.3898903  18.6690113  27.7622753  62.1508903
  19.0990113  28.3312753  62.4758903  17.7930113  35.1692753  63.7998903
  17.1200113  34.6712753  63.5548903  18.1960113  35.3542753  63.0488903
  17.7530113  35.1232753  63.6528903  17.3430113  22.1192753  66.0958903
  18.1860113  22.3392753  66.0528903  16.9540113  22.6922753  65.5648903
  17.4100113  22.2362753  66.0108903  34.1240113  33.2212753  71.4858903
  33.4420113  33.5312753  71.0388903  33.7550113  32.7632753  72.1308903
  33.9680113  33.1992753  71.5148903  29.7850113  25.2492753  56.8168903
  29.5650113  25.9802753  56.3948903  29.3370113  25.3002753  57.5638903
  29.6860113  25.3642753  56.8648903  21.3940113  28.4512753  60.7978903
  22.1070113  28.9462753  60.8878903  21.6160113  27.8842753  60.1718903
  21.5320113  28.4402753  60.7188903  33.9720113  20.1102753  56.2698903
  33.3100113  19.5422753  56.2928903  33.7790113  20.6222753  55.5898903
  33.8460113  20.1022753  56.1728903  15.5500113  30.0942753  64.1178903
  14.8830113  30.5822753  64.3938903  16.2300113  30.6392753  64.1468903
  15.5520113  30.2462753  64.1628903  23.1970113  23.8042753  74.2138903
  22.7130113  24.3812753  74.6558903  23.1690113  24.0992753  73.3928903
  23.1210113  23.9332753  74.1578903  34.2950113  24.4882753  68.8258903
  34.5100113  23.6882753  68.5498903  33.4450113  24.5482753  68.6368903
  34.2010113  24.3792753  68.7568903  15.6160113  26.7782753  59.2208903
  15.4310113  25.9392753  59.3728903  16.2750113  26.7422753  58.6508903
  15.6860113  26.6492753  59.1588903  31.9740113  19.6682753  58.5488903
  32.7200113  19.2612753  58.7478903  32.2370113  20.3832753  58.1238903
  32.1230113  19.7142753  58.5158903  25.9170113  32.1542753  63.1248903
  25.3940113  32.7882753  62.8318903  26.2270113  31.7902753  62.3958903
  25.8850113  32.1942753  62.9738903  15.7880113  30.9422753  58.7958903
  16.3400113  31.5112753  59.1598903  15.5560113  30.4272753  59.4608903
  15.8350113  30.9502753  58.9478903  19.9920113  29.9422753  65.8848903
  20.4590113  30.2312753  66.5628903  20.5640113  29.4642753  65.4308903
  20.1460113  29.9142753  65.9178903  15.6180113  29.3912753  56.4238903
  16.3740113  28.9592753  56.4818903  15.6330113  29.9232753  57.1148903
  15.7320113  29.4062753  56.5348903  16.5580113  27.6122753  64.4288903
  16.9890113  27.4832753  63.6818903  16.3530113  28.4602753  64.4028903
  16.5910113  27.7182753  64.3148903  22.9040113  21.1762753  58.0788903
  22.9020113  21.0592753  57.2138903  22.7230113  22.0242753  58.1708903
  22.8770113  21.2842753  57.9648903  31.9580113  33.6032753  69.5758903
  31.2870113  34.1172753  69.7938903  32.0210113  33.7032753  68.7118903
  31.8680113  33.6942753  69.4808903  20.6420113  31.1282753  62.7108903
  20.7680113  31.9712753  62.8978903  21.3100113  30.7292753  63.1068903
  20.7600113  31.1942753  62.7968903  18.7720113  24.6112753  72.5728903
  18.2360113  24.1052753  73.0408903  18.7920113  24.2212753  71.7928903
  18.6950113  24.4782753  72.5268903  19.2570113  24.0082753  57.7128903
  19.1290113  23.5602753  58.4508903  18.6750113  23.6662753  57.1608903
  19.1520113  23.8912753  57.7408903  19.4240113  25.8382753  64.3118903
  18.6430113  25.7792753  63.9288903  19.4960113  25.0862753  64.7488903
  19.3190113  25.7192753  64.3198903  19.8540113  25.5752753  67.7798903
  19.8790113  24.9002753  67.2288903  19.2080113  26.0712753  67.4678903
  19.7630113  25.5482753  67.6528903  29.7490113  23.2882753  66.1758903
  29.0870113  23.6162753  66.6388903  29.9360113  23.9222753  65.6068903
  29.6790113  23.4302753  66.1598903  23.9540113  34.3522753  67.1718903
  23.6770113  33.7112753  66.6488903  23.7460113  35.0782753  66.7338903
  23.8830113  34.3652753  67.0298903  26.3940113  19.1942753  69.6048903
  26.5430113  18.3692753  69.3618903  26.7730113  19.2492753  70.3888903
  26.4720113  19.0802753  69.6848903  27.9420113  21.2572753  59.6868903
  28.4320113  21.9742753  59.6098903  27.1520113  21.5182753  59.4238903
  27.8980113  21.4012753  59.6368903  17.6530113  26.9302753  73.3388903
  17.6160113  27.4312753  72.6248903  17.9840113  26.1782753  73.0438903
  17.6960113  26.8922753  73.1898903  29.2560113  29.1352753  71.5968903
  29.7400113  29.8532753  71.6948903  29.6500113  28.7082753  70.9458903
  29.3860113  29.1782753  71.5148903  23.5520113  31.9802753  72.7738903
  23.9060113  31.8022753  73.5508903  23.1160113  31.2512753  72.5748903
  23.5400113  31.8462753  72.8598903  24.5240113  22.7272753  65.4118903
  25.0040113  23.4262753  65.6198903  24.8970113  22.0802753  65.8628903
  24.6500113  22.7352753  65.5088903  26.7130113  25.8962753  57.6858903
  26.7050113  26.6182753  57.1958903  26.0740113  26.0312753  58.2628903
  26.6180113  26.0232753  57.6988903  27.7300113  32.8322753  65.5108903
  27.1270113  32.5362753  64.9538903  28.2750113  33.2842753  65.0018903
  27.7210113  32.8552753  65.3528903  27.7430113  29.6832753  64.9108903
  26.9460113  29.9072753  65.1848903  28.0010113  29.0892753  65.4958903
  27.6630113  29.6282753  65.0378903  21.6350113  34.4952753  59.3588903
  21.4880113  33.7192753  59.7298903  22.3240113  34.3482753  58.8438903
  21.7150113  34.3582753  59.3378903  21.3060113  18.2382753  57.3468903
  21.4030113  18.1312753  58.2078903  20.5980113  18.7442753  57.2818903
  21.2160113  18.2972753  57.4648903  23.9270113  34.0112753  57.7608903
  24.5490113  34.1742753  58.3508903  23.9630113  34.7022753  57.2288903
  24.0240113  34.1372753  57.7698903  31.0030113  27.6812753  69.7568903
  31.0580113  27.8062753  68.8948903  31.7560113  28.0012753  70.0588903
  31.1220113  27.7462753  69.6738903  27.1940113  33.0302753  74.0338903
  27.3580113  33.3132753  74.8428903  27.4570113  33.6912753  73.5288903
  27.2570113  33.1702753  74.0788903  32.0350113  17.9792753  72.7438903
  31.3980113  17.5792753  72.3018903  32.0610113  17.5482753  73.5018903
  31.9450113  17.8572753  72.7898903  18.4280113  26.5452753  58.5898903
  18.7520113  25.7662753  58.3678903  19.0740113  26.9132753  59.0448903
  18.5710113  26.4842753  58.6238903  26.7340113  27.4872753  69.3568903
  26.5790113  28.0972753  69.9608903  27.2680113  26.9292753  69.7628903
  26.7900113  27.4952753  69.5058903  15.4250113  18.2062753  59.5578903
  15.5540113  17.4982753  59.0658903  15.0580113  17.8882753  60.2828903
  15.3900113  18.0542753  59.5928903  25.1180113  25.8872753  60.0148903
  25.1770113  26.5372753  60.5938903  24.9290113  25.1912753  60.5058903
  25.0990113  25.8802753  60.1728903  30.3440113  30.2162753  65.8838903
  29.8650113  30.5142753  65.2178903  29.9880113  29.4402753  66.0618903
  30.2210113  30.1452753  65.8118903  19.6140113  20.4042753  56.5268903
  19.1030113  20.4572753  55.8208903  20.3980113  20.6442753  56.2308903
  19.6540113  20.4472753  56.3788903  24.3410113  27.9342753  64.4458903
  23.4940113  27.7402753  64.5268903  24.6650113  27.7692753  65.2388903
  24.2630113  27.8812753  64.5748903  21.0930113  34.6642753  55.3318903
  21.5320113  33.9672753  55.6198903  21.3000113  35.2882753  55.9048903
  21.1890113  34.6532753  55.4588903  18.1890113  27.6272753  66.7618903
  18.9110113  28.1152753  66.7248903  17.9190113  27.5972753  65.9328903
  18.2560113  27.6952753  66.6338903  21.4190113  22.7982753  63.4968903
  22.2650113  22.6082753  63.5948903  21.0490113  22.0212753  63.3588903
  21.4890113  22.6552753  63.4908903  16.2400113  24.1362753  60.1518903
  16.7290113  23.8442753  60.8128903  16.3690113  23.5432753  59.5248903
  16.3310113  24.0052753  60.1568903  20.7650113  25.5702753  55.6378903
  20.1550113  25.1652753  56.1118903  20.3790113  25.6882753  54.8648903
  20.6180113  25.5272753  55.5938903  17.5840113  28.6792753  71.0398903
  17.1630113  28.1612753  70.4788903  17.2320113  29.4652753  70.8968903
  17.4700113  28.7192753  70.9358903  22.2200113  24.0312753  58.3478903
  22.4920113  24.8572753  58.4148903  21.3570113  24.1062753  58.2518903
  22.1330113  24.1642753  58.3428903  30.1930113  21.1532753  72.9798903
  29.6680113  21.6122753  73.5038903  29.8320113  20.3582753  72.9738903
  30.0620113  21.1032753  73.0558903  15.7000113  20.0012753  64.8838903
  15.7440113  20.3452753  64.0828903  16.4550113  20.2382753  65.2508903
  15.8180113  20.0872753  64.8198903  28.6850113  24.7222753  73.0558903
  28.7580113  24.8262753  73.9188903  28.0510113  25.2802753  72.8348903
  28.6020113  24.8202753  73.1508903  30.9530113  25.0412753  71.4208903
  31.2720113  25.8272753  71.6238903  30.5830113  24.7712753  72.1638903
  30.9460113  25.1172753  71.5608903  30.7490113  23.2992753  62.6098903
  30.0040113  22.9762753  62.9278903  30.7510113  24.1252753  62.8898903
  30.6390113  23.3732753  62.6978903  33.6510113  25.5832753  74.1558903
  33.5990113  25.2422753  73.3548903  34.3880113  26.0502753  74.1338903
  33.7520113  25.6022753  74.0338903  33.1890113  29.2592753  70.3618903
  33.8170113  28.7102753  70.1058903  33.1280113  29.8242753  69.6998903
  33.2730113  29.2622753  70.2258903  27.6410113  29.3402753  56.3538903
  28.3250113  28.8262753  56.1848903  27.2240113  29.3862753  55.5888903
  27.6800113  29.2712753  56.2158903  22.3230113  30.4902753  67.6578903
  22.0250113  31.0822753  68.2248903  22.3780113  30.9322753  66.9088903
  22.2870113  30.6432753  67.6308903  20.3020113  29.4402753  71.0558903
  19.4960113  29.1502753  71.2228903  20.2130113  30.3082753  71.0618903
  20.1700113  29.5252753  71.0808903  29.6610113  19.6292753  70.0708903
  30.4050113  20.0812753  70.0078903  29.0950113  20.0992753  69.6018903
  29.6880113  19.7662753  69.9928903  24.8390113  26.9132753  67.1488903
  25.3150113  27.2872753  67.7768903  24.0160113  27.0472753  67.4078903
  24.7880113  26.9882753  67.2798903  21.5490113  22.5162753  69.8898903
  21.7100113  21.7722753  70.3168903  21.5040113  22.2672753  69.0548903
  21.5660113  22.3692753  69.8298903  24.1030113  34.3062753  62.3768903
  24.6490113  34.9852753  62.4308903  23.7530113  34.3882753  61.5818903
  24.1320113  34.4192753  62.2668903  30.9460113  17.6092753  67.7408903
  30.6660113  18.4342753  67.6968903  31.6620113  17.6622753  68.2368903
  31.0110113  17.7392753  67.8078903  23.3010113  18.3242753  69.7698903
  24.0060113  18.6442753  69.3678903  23.5420113  17.5172753  69.9968903
  23.4400113  18.2522753  69.7438903  22.2860113  32.5342753  65.7658903
  21.6620113  33.1162753  65.5838903  22.5340113  32.2482753  64.9798903
  22.2300113  32.5782753  65.6228903  26.5950113  29.1682753  72.7548903
  27.3520113  29.4542753  72.4288903  26.0480113  29.2202753  72.0768903
  26.6260113  29.2182753  72.6058903  30.5040113  31.7182753  71.2588903
  30.8500113  31.9882753  72.0128903  30.7980113  32.3002753  70.6788903
  30.5990113  31.8442753  71.2848903  32.3670113  23.8642753  56.5978903
  32.7450113  24.5412753  56.1978903  31.5250113  24.0882753  56.6288903
  32.2980113  23.9972753  56.5428903  23.8800113  27.3102753  55.6808903
  23.0750113  27.1332753  55.3958903  23.8470113  28.1612753  55.8728903
  23.7560113  27.4092753  55.6678903  19.8100113  23.3772753  65.8308903
  20.2500113  23.2742753  65.0848903  20.3550113  23.0642753  66.4358903
  19.9550113  23.3162753  65.8098903  27.8260113  22.4792753  71.4228903
  27.1780113  22.9492753  71.7708903  28.3910113  22.3902753  72.0818903
  27.8140113  22.5352753  71.5718903  27.5140113  24.0162753  67.7208903
  27.8160113  24.4362753  68.4238903  27.5500113  23.1762753  67.9528903
  27.5640113  23.9542753  67.8588903  24.9390113  34.1832753  71.6458903
  25.4170113  33.5832753  71.2298903  24.5880113  33.7402753  72.3108903
  24.9580113  34.0292753  71.6828903  30.0620113  23.4632753  59.9728903
  30.2690113  23.2622753  60.7968903  30.8180113  23.7312753  59.6308903
  30.2040113  23.4732753  60.0438903  23.3570113  18.3622753  65.8778903
  22.5310113  18.2132753  66.1148903  23.3170113  18.3972753  65.0068903
  23.2290113  18.3452753  65.7838903  31.0840113  19.5462753  61.4468903
  30.3700113  19.0752753  61.6178903  30.9220113  19.8872753  60.6608903
  30.9550113  19.5272753  61.3558903  31.5270113  27.4902753  59.8268903
  32.0030113  26.7612753  59.7788903  30.7060113  27.2042753  59.7508903
  31.4760113  27.3402753  59.8078903  24.9980113  29.4022753  70.6658903
  24.2030113  29.3382753  71.0168903  25.0690113  30.2492753  70.4708903
  24.8910113  29.5172753  70.6888903  15.9220113  18.7602753  71.9128903
  15.7820113  19.5552753  71.5818903  15.1360113  18.5172753  72.2018903
  15.7850113  18.8422753  71.9068903  20.8280113  35.6092753  65.9828903
  20.8390113  35.6682753  66.8528903  20.4030113  34.8622753  65.8328903
  20.7670113  35.5072753  66.0888903  18.9860113  21.5042753  59.1378903
  19.1120113  21.1752753  58.3398903  18.1740113  21.2552753  59.3368903
  18.8850113  21.4192753  59.0498903  27.7430113  28.6572753  62.1818903
  27.8190113  28.9982753  62.9808903  27.9120113  27.8102753  62.3028903
  27.7790113  28.5822753  62.3178903  25.2650113  27.9312753  61.7468903
  24.9670113  27.6162753  62.5038903  25.9600113  28.4042753  61.9818903
  25.3240113  27.9542753  61.8938903  25.4870113  32.0492753  69.7738903
  26.1740113  31.9352753  70.2988903  25.6210113  32.8402753  69.4298903
  25.6080113  32.1492753  69.8008903  33.6630113  24.6582753  71.5848903
  32.8080113  24.5362753  71.7108903  33.8160113  24.2632753  70.8218903
  33.5590113  24.5812753  71.4908903  28.1760113  25.3232753  70.1608903
  27.9210113  24.6042753  70.5828903  28.9970113  25.4392753  70.4308903
  28.2600113  25.2342753  70.2628903  17.5920113  35.1072753  71.4248903
  16.9380113  34.5382753  71.5228903  17.2170113  35.8802753  71.5758903
  17.4400113  35.1372753  71.4618903  26.1100113  26.5132753  73.3478903
  26.4330113  27.1992753  72.9158903  25.4060113  26.8362753  73.7498903
  26.0530113  26.6622753  73.3428903  25.8950113  29.9772753  67.2068903
  25.2010113  30.3792753  67.5498903  26.5720113  30.4102753  67.5458903
  25.8920113  30.1002753  67.3078903  18.9630113  23.5152753  69.5538903
  19.3380113  24.1342753  69.0668903  19.6370113  23.0412753  69.8388903
  19.1180113  23.5372753  69.5238903  16.7380113  21.9632753  68.8288903
  16.8150113  21.7942753  67.9758903  17.4840113  22.3692753  69.0258903
  16.8590113  21.9982753  68.7318903  32.2970113  24.6032753  59.2688903
  32.4000113  24.5452753  58.4048903  33.0380113  24.2712753  59.5868903
  32.4220113  24.5462753  59.1878903  19.2920113  19.3732753  71.2398903
  19.2110113  18.5292753  71.4458903  18.9780113  19.4172753  70.4268903
  19.2340113  19.2552753  71.1498903  26.2170113  31.5682753  60.3758903
  26.0120113  32.4012753  60.2168903  25.4420113  31.1862753  60.4978903
  26.0720113  31.6352753  60.3708903  31.3990113  24.7492753  68.6248903
  31.3970113  23.8862753  68.7488903  31.4660113  25.0732753  69.4318903
  31.4090113  24.6692753  68.7618903  16.1350113  27.1892753  69.0528903
  16.4550113  27.4082753  68.2718903  16.0350113  26.3242753  68.9978903
  16.1670113  27.0942753  68.9298903  17.5910113  23.1252753  55.6708903
  16.9190113  23.1392753  56.2268903  17.6860113  22.2772753  55.4868903
  17.5060113  23.0022753  55.7258903  27.2780113  19.5492753  72.4068903
  27.3700113  20.2612753  72.9008903  26.6410113  19.1042753  72.8038903
  27.1970113  19.5882753  72.5388903  26.2720113  19.7392753  63.2608903
  25.5720113  20.2572753  63.2048903  26.3100113  19.3592753  62.4768903
  26.1740113  19.7602753  63.1368903  21.5790113  31.8302753  56.7848903
  22.0200113  31.9102753  57.5328903  20.7740113  31.6142753  57.0428903
  21.5250113  31.8102753  56.9338903  29.8700113  20.2552753  66.0608903
  30.7250113  20.3542753  66.2058903  29.5010113  20.8082753  66.6258903
  29.9420113  20.3522753  66.1658903  20.8980113  26.4812753  70.4378903
  20.5020113  27.2552753  70.5128903  20.4920113  26.1082753  69.7618903
  20.7800113  26.5402753  70.3488903  30.1740113  25.5352753  64.5518903
  30.8400113  26.0762753  64.7118903  29.8290113  25.8462753  63.8128903
  30.2210113  25.6612753  64.4668903  18.9080113  30.9002753  57.3858903
  18.6640113  30.5932753  58.1658903  18.8750113  30.1972753  56.8698903
  18.8670113  30.7512753  57.4248903  21.7270113  29.1452753  56.1288903
  20.9090113  28.8772753  56.2688903  21.6990113  29.9972753  56.3138903
  21.6020113  29.2322753  56.1768903  21.3270113  19.4582753  67.8878903
  20.4630113  19.5422753  67.9678903  21.5470113  18.9442753  68.5568903
  21.2320113  19.3952753  67.9988903  33.3450113  18.0932753  69.2168903
  33.2930113  18.0492753  70.0868903  34.0320113  17.5902753  69.0268903
  33.4390113  18.0132753  69.3168903  25.4300113  20.2062753  66.2618903
  24.6930113  19.7522753  66.3748903  26.0010113  19.8042753  66.7848903
  25.4050113  20.0792753  66.3558903  28.1620113  31.0542753  68.0498903
  28.3680113  31.3552753  68.8418903  28.1010113  31.7762753  67.5648903
  28.1830113  31.2052753  68.0948903  27.6960113  35.2682753  72.2958903
  26.9430113  35.2502753  71.8548903  27.8640113  36.1202753  72.3798903
  27.6100113  35.3912753  72.2428903  22.9330113  24.5352753  71.4658903
  22.6110113  23.9592753  70.8958903  22.5740113  25.2902753  71.2198903
  22.8330113  24.5612753  71.3458903  23.7290113  17.7872753  56.0928903
  23.8070113  18.0342753  55.2598903  22.9860113  18.1642753  56.3508903
  23.6310113  17.8792753  56.0078903  21.3680113  34.8912753  71.7138903
  21.4090113  35.0172753  72.5768903  22.0190113  34.3312753  71.5578903
  21.4700113  34.8272753  71.8188903  18.5470113  19.5412753  68.5358903
  18.2040113  18.7742753  68.3018903  17.8520113  20.0652753  68.5998903
  18.3940113  19.5052753  68.5108903  27.5930113  18.3972753  65.5128903
  28.2630113  18.9412753  65.6398903  27.0900113  18.8212753  64.9398903
  27.6180113  18.5402753  65.4468903  18.9610113  33.2742753  73.0738903
  19.5560113  33.7052753  73.5458903  18.5970113  33.8982753  72.5848903
  18.9950113  33.4302753  73.0708903  26.9520113  24.2052753  63.0058903
  27.5030113  23.5982753  63.3058903  26.5270113  24.4682753  63.7208903
  26.9710113  24.1542753  63.1548903  17.2000113  22.8552753  62.4918903
  16.8320113  23.1572753  63.2228903  17.7340113  22.2262753  62.7758903
  17.2240113  22.8072753  62.6418903  16.8880113  31.2632753  70.0028903
  16.3140113  31.6792753  70.5118903  17.6210113  31.7282753  70.0978903
  16.9120113  31.3932753  70.0918903  28.9220113  26.0362753  59.5678903
  28.9900113  25.1862753  59.7488903  28.0990113  26.1222753  59.2898903
  28.8100113  25.9232753  59.5538903  18.6740113  34.5302753  58.7778903
  18.5290113  34.6862753  57.9318903  19.5400113  34.6092753  58.8558903
  18.7810113  34.5652753  58.6648903  22.8410113  26.9272753  58.5058903
  22.9410113  27.0662753  57.6508903  23.6590113  26.8672753  58.8018903
  22.9760113  26.9382753  58.4228903  32.1960113  27.4092753  72.7188903
  32.8300113  27.2392753  73.2928903  32.6130113  27.8122753  72.0668903
  32.3510113  27.4442753  72.7078903  28.0760113  31.2562753  58.3078903
  27.8250113  31.1282753  59.1338903  27.7590113  30.5612753  57.8868903
  27.9920113  31.1352753  58.3678903  32.8210113  21.9732753  73.4568903
  32.6250113  22.6172753  74.0118903  32.0990113  21.4832753  73.4488903
  32.6860113  21.9962753  73.5378903  32.7200113  22.9142753  66.4278903
  31.8870113  23.1642753  66.3558903  32.6640113  22.0742753  66.6568903
  32.5890113  22.8272753  66.4508903  21.9800113  19.9022753  71.6218903
  22.2140113  19.3262753  71.0088903  21.1380113  19.7212753  71.7628903
  21.8900113  19.7902753  71.5518903  29.6070113  27.5202753  74.0738903
  30.4780113  27.4842753  74.0378903  29.3880113  27.9402753  73.3418903
  29.7040113  27.5762753  73.9608903  19.3610113  33.3452753  65.2548903
  19.2820113  32.5352753  64.9388903  18.9170113  33.8322753  64.6828903
  19.2840113  33.2972753  65.1238903  24.9620113  29.4642753  57.7378903
  25.6790113  29.1172753  57.3818903  24.9280113  30.2642753  57.3898903
  25.0630113  29.5312753  57.6338903  16.9330113  35.5892753  68.8358903
  17.4260113  35.5332753  69.5538903  17.1210113  34.8562753  68.4008903
  17.0340113  35.4722753  68.8778903  26.3710113  18.1052753  41.9766493
  26.1260113  18.5932753  41.2966493  27.2340113  18.0322753  41.8766493
  26.4620113  18.1662753  41.8616493  26.1800113  25.0212753  46.6476493
  25.6560113  25.6172753  47.0106493  26.5770113  24.6532753  47.3316493
  26.1610113  25.0552753  46.8026493  16.0490113  29.1612753  42.1036493
  15.6080113  29.2792753  42.8466493  15.7660113  28.3862753  41.8186493
  15.9420113  29.0642753  42.1716493  15.7920113  22.9532753  38.6106493
  15.0140113  23.1152753  38.2506493  15.8310113  22.0822753  38.6326493
  15.6830113  22.8482753  38.5606493  18.9310113  28.2162753  37.2826493
  18.5390113  27.8452753  36.5966493  18.8510113  27.6182753  37.9116493
  18.8610113  28.0732753  37.2736493  28.8510113  26.0882753  43.3236493
  28.9310113  26.0922753  42.4546493  28.2670113  25.4562753  43.4726493
  28.7760113  25.9952753  43.2176493  18.5580113  29.8572753  41.1826493
  19.1660113  29.6872753  41.7856493  17.8070113  29.7172753  41.6036493
  18.5370113  29.8112753  41.3336493  22.8400113  19.1922753  41.1316493
  22.7700113  19.8692753  40.5856493  23.5810113  18.8042753  40.8826493
  22.9390113  19.2352753  41.0136493  17.4490113  32.9482753  37.2596493
  17.9160113  33.0322753  36.5276493  17.9040113  32.3702753  37.7286493
  17.5850113  32.8752753  37.2206493  15.9890113  31.8962753  48.3586493
  16.1180113  31.6162753  49.1746493  15.3790113  31.3552753  48.0496493
  15.9180113  31.7752753  48.4336493  22.5630113  29.4212753  53.4256493
  22.3270113  29.4182753  54.2656493  21.8150113  29.2732753  53.0016493
  22.4170113  29.3982753  53.4866493  17.4350113  26.4172753  42.5606493
  16.9730113  26.0252753  41.9336493  18.1350113  25.9042753  42.6526493
  17.4700113  26.2842753  42.4816493  21.9430113  22.0272753  47.9076493
  22.6210113  22.0452753  47.3586493  21.8980113  21.1912753  48.1526493
  22.0360113  21.9062753  47.8626493  22.5450113  32.6132753  50.6886493
  22.6830113  33.3732753  50.2816493  23.3360113  32.2482753  50.7156493
  22.6820113  32.6722753  50.6326493  19.4360113  24.5172753  42.5836493
  20.2530113  24.3302753  42.8266493  18.9590113  23.9032753  42.9796493
  19.4860113  24.3992753  42.6786493  23.6400113  30.4982753  45.1936493
  23.9880113  29.6992753  45.2236493  24.3050113  31.0022753  44.9386493
  23.7900113  30.4542753  45.1606493  23.6970113  29.9472753  41.4046493
  24.0280113  29.3032753  41.8906493  23.9370113  29.7362753  40.5936493
  23.7810113  29.8212753  41.3566493  25.6650113  24.0782753  52.7436493
  24.8170113  23.9792753  52.5656493  25.6940113  24.8232753  53.1976493
  25.5440113  24.1742753  52.7846493  20.0330113  19.6112753  41.8496493
  19.7370113  20.1122753  41.1996493  20.9000113  19.6892753  41.7926493
  20.1170113  19.6972753  41.7456493  30.2230113  17.0382753  51.8576493
  30.0650113  17.8072753  51.4756493  29.4510113  16.8182753  52.2016493
  30.0850113  17.1192753  51.8526493  23.0120113  18.7532753  44.0726493
  23.0850113  19.6132753  44.2016493  22.9740113  18.6782753  43.2046493
  23.0170113  18.8692753  43.9636493  27.6850113  21.6792753  36.3716493
  27.2350113  22.3602753  36.6786493  27.7990113  21.1752753  37.0746493
  27.6360113  21.7052753  36.5206493  15.8910113  24.1782753  45.5736493
  15.6350113  25.0092753  45.4986493  15.2270113  23.7952753  45.9906493
  15.7550113  24.2442753  45.6246493  15.8010113  33.8882753  43.4736493
  15.2090113  34.4462753  43.1606493  16.2270113  33.6192753  42.7616493
  15.7770113  33.9302753  43.3226493  21.6410113  31.7322753  40.9536493
  21.0620113  31.4572753  41.5456493  22.2650113  31.1232753  40.9786493
  21.6480113  31.6022753  41.0446493  18.9200113  18.9952753  46.0646493
  18.3990113  18.3672753  45.7566493  19.5110113  18.5582753  46.5356493
  18.9310113  18.8372753  46.0886493  22.2260113  21.1282753  55.3626493
  22.3430113  20.6742753  54.6266493  22.5140113  21.9262753  55.1596493
  22.2860113  21.1792753  55.2236493  17.3460113  32.5582753  41.4046493
  18.0020113  31.9832753  41.4196493  17.7350113  33.3072753  41.1836493
  17.5010113  32.5832753  41.3746493  33.0790113  21.6522753  42.6666493
  32.7330113  22.3302753  43.0926493  32.4430113  21.0542753  42.6826493
  32.9340113  21.6642753  42.7316493  17.9590113  20.7252753  54.3466493
  17.1810113  20.3352753  54.2746493  18.4500113  20.3132753  53.7556493
  17.9160113  20.6062753  54.2486493  18.1640113  31.0452753  44.9046493
  18.5870113  30.6892753  44.2306493  18.4880113  30.6232753  45.5966493
  18.2740113  30.9302753  44.9076493  21.3950113  33.8972753  44.2006493
  22.2390113  34.0012753  44.0056493  21.0980113  34.7152753  44.2686493
  21.4760113  34.0332753  44.1816493  24.6080113  18.3682753  53.5146493
  24.7860113  17.5592753  53.2396493  24.4650113  18.8092753  52.7756493
  24.6130113  18.3142753  53.3646493  25.2020113  23.2942753  42.2876493
  25.4890113  23.0622753  41.4976493  25.9340113  23.3732753  42.7566493
  25.3520113  23.2712753  42.2406493  25.9240113  23.6332753  37.4086493
  26.2050113  24.4212753  37.6576493  25.1480113  23.7982753  37.0456493
  25.8510113  23.7742753  37.3916493  20.3930113  35.1162753  49.9406493
  20.6850113  35.0492753  50.7606493  19.7670113  34.5112753  49.8956493
  20.3440113  35.0172753  50.0556493  32.7540113  19.9752753  48.0356493
  33.5110113  20.0472753  47.6076493  32.8170113  19.2022753  48.4346493
  32.8750113  19.8722753  48.0306493  15.3070113  21.2732753  51.9326493
  15.3030113  21.8602753  52.5786493  15.9010113  21.5852753  51.3756493
  15.3940113  21.4062753  51.9456493  27.6450113  31.6072753  52.4746493
  27.6110113  31.9892753  53.2586493  28.4990113  31.5652753  52.3036493
  27.7660113  31.6572753  52.5656493  24.7830113  31.8042753  37.2246493
  24.6020113  32.3492753  37.8816493  25.5490113  32.0942753  36.9236493
  24.8690113  31.9282753  37.2776493  28.2900113  19.7002753  38.2786493
  28.8300113  19.0182753  38.3546493  28.3520113  20.0982753  39.0526493
  28.3790113  19.6582753  38.4046493  16.2440113  20.8682753  40.8476493
  16.1300113  20.0042753  40.8786493  15.7690113  21.1622753  41.5176493
  16.1570113  20.7842753  40.9506493  18.3860113  33.2782753  49.0626493
  17.6880113  32.7702753  49.1886493  18.6460113  33.0732753  48.2546493
  18.3210113  33.1732753  48.9616493  25.5480113  22.0762753  39.5926493
  25.0400113  21.4142753  39.3386493  25.6000113  22.5802753  38.8826493
  25.4810113  22.0532753  39.4506493  25.5480113  19.0172753  39.4836493
  25.0930113  18.6152753  38.8576493  26.3210113  19.1722753  39.1086493
  25.5950113  18.9812753  39.3356493  24.1460113  21.3842753  44.0056493
  24.2200113  21.9522753  43.3476493  24.2670113  21.8762753  44.7156493
  24.1740113  21.5412753  44.0136493  29.3710113  31.2192753  42.4176493
  30.0720113  30.7372753  42.6066493  28.7110113  30.6502753  42.4626493
  29.3770113  31.0642753  42.4516493  19.7470113  32.1292753  51.6296493
  20.5880113  32.1922753  51.4076493  19.7100113  32.5262753  52.4056493
  19.8660113  32.1972753  51.7116493  18.7540113  17.2072753  42.3536493
  19.2900113  17.8952753  42.3436493  18.7570113  16.9332753  41.5256493
  18.8330113  17.2682753  42.2296493  21.7100113  27.6402753  46.3786493
  21.8820113  27.4302753  47.2076493  21.0550113  27.1062753  46.1626493
  21.6390113  27.5302753  46.4696493  27.9380113  21.5542753  49.8936493
  27.8430113  21.8732753  50.6996493  27.3450113  20.9152753  49.8556493
  27.8360113  21.5062753  50.0076493  22.4600113  27.5782753  48.9686493
  22.5130113  28.4252753  49.1706493  22.1750113  27.2082753  49.7056493
  22.4260113  27.6482753  49.1066493  28.6370113  28.2732753  48.0986493
  28.1230113  27.8612753  48.6696493  28.5110113  29.1172753  48.2796493
  28.5430113  28.3372753  48.2096493  29.1940113  17.4982753  42.7296493
  29.2430113  17.1802753  43.5406493  29.5170113  16.8542753  42.2366493
  29.2490113  17.3562753  42.7766493  15.2810113  31.9492753  55.1796493
  16.0370113  32.2982753  55.4376493  15.4580113  31.0962753  55.1226493
  15.4190113  31.8742753  55.2096493  31.6580113  21.7342753  51.0376493
  32.4300113  21.5092753  51.3746493  31.1830113  21.9512753  51.7376493
  31.7020113  21.7332753  51.1906493  19.2020113  21.0172753  44.0076493
  19.4740113  20.5872753  43.2996493  19.0260113  20.3812753  44.5786493
  19.2160113  20.8602753  43.9876493  19.0260113  28.4442753  43.5566493
  19.8770113  28.3642753  43.3836493  18.6690113  27.7622753  43.1446493
  19.0990113  28.3312753  43.4696493  17.7930113  35.1692753  44.7936493
  17.1200113  34.6712753  44.5486493  18.1960113  35.3542753  44.0426493
  17.7530113  35.1232753  44.6466493  17.3430113  22.1192753  47.0896493
  18.1860113  22.3392753  47.0466493  16.9540113  22.6922753  46.5586493
  17.4100113  22.2362753  47.0046493  21.3940113  28.4512753  41.7916493
  22.1070113  28.9462753  41.8816493  21.6160113  27.8842753  41.1656493
  21.5320113  28.4402753  41.7126493  33.9720113  20.1102753  37.2636493
  33.3100113  19.5422753  37.2866493  33.7790113  20.6222753  36.5836493
  33.8460113  20.1022753  37.1666493  15.5500113  30.0942753  45.1116493
  14.8830113  30.5822753  45.3876493  16.2300113  30.6392753  45.1406493
  15.5520113  30.2462753  45.1566493  23.1970113  23.8042753  55.2076493
  22.7130113  24.3812753  55.6496493  23.1690113  24.0992753  54.3866493
  23.1210113  23.9332753  55.1516493  34.2950113  24.4882753  49.8196493
  34.5100113  23.6882753  49.5436493  33.4450113  24.5482753  49.6306493
  34.2010113  24.3792753  49.7506493  15.6160113  26.7782753  40.2146493
  15.4310113  25.9392753  40.3666493  16.2750113  26.7422753  39.6446493
  15.6860113  26.6492753  40.1526493  31.9740113  19.6682753  39.5426493
  32.7200113  19.2612753  39.7416493  32.2370113  20.3832753  39.1176493
  32.1230113  19.7142753  39.5096493  25.9170113  32.1542753  44.1186493
  25.3940113  32.7882753  43.8256493  26.2270113  31.7902753  43.3896493
  25.8850113  32.1942753  43.9676493  15.7880113  30.9422753  39.7896493
  16.3400113  31.5112753  40.1536493  15.5560113  30.4272753  40.4546493
  15.8350113  30.9502753  39.9416493  19.9920113  29.9422753  46.8786493
  20.4590113  30.2312753  47.5566493  20.5640113  29.4642753  46.4246493
  20.1460113  29.9142753  46.9116493  28.4280113  21.9562753  44.6156493
  28.7720113  22.1082753  45.4026493  27.9750113  21.2182753  44.7286493
  28.4120113  21.8692753  44.7486493  15.6180113  29.3912753  37.4176493
  16.3740113  28.9592753  37.4756493  15.6330113  29.9232753  38.1086493
  15.7320113  29.4062753  37.5286493  16.5580113  27.6122753  45.4226493
  16.9890113  27.4832753  44.6756493  16.3530113  28.4602753  45.3966493
  16.5910113  27.7182753  45.3086493  22.9040113  21.1762753  39.0726493
  22.9020113  21.0592753  38.2076493  22.7230113  22.0242753  39.1646493
  22.8770113  21.2842753  38.9586493  20.6420113  31.1282753  43.7046493
  20.7680113  31.9712753  43.8916493  21.3100113  30.7292753  44.1006493
  20.7600113  31.1942753  43.7906493  18.7720113  24.6112753  53.5666493
  18.2360113  24.1052753  54.0346493  18.7920113  24.2212753  52.7866493
  18.6950113  24.4782753  53.5206493  19.2570113  24.0082753  38.7066493
  19.1290113  23.5602753  39.4446493  18.6750113  23.6662753  38.1546493
  19.1520113  23.8912753  38.7346493  19.4240113  25.8382753  45.3056493
  18.6430113  25.7792753  44.9226493  19.4960113  25.0862753  45.7426493
  19.3190113  25.7192753  45.3136493  19.8540113  25.5752753  48.7736493
  19.8790113  24.9002753  48.2226493  19.2080113  26.0712753  48.4616493
  19.7630113  25.5482753  48.6466493  29.7490113  23.2882753  47.1696493
  29.0870113  23.6162753  47.6326493  29.9360113  23.9222753  46.6006493
  29.6790113  23.4302753  47.1536493  23.9540113  34.3522753  48.1656493
  23.6770113  33.7112753  47.6426493  23.7460113  35.0782753  47.7276493
  23.8830113  34.3652753  48.0236493  26.3940113  19.1942753  50.5986493
  26.5430113  18.3692753  50.3556493  26.7730113  19.2492753  51.3826493
  26.4720113  19.0802753  50.6786493  27.9420113  21.2572753  40.6806493
  28.4320113  21.9742753  40.6036493  27.1520113  21.5182753  40.4176493
  27.8980113  21.4012753  40.6306493  17.6530113  26.9302753  54.3326493
  17.6160113  27.4312753  53.6186493  17.9840113  26.1782753  54.0376493
  17.6960113  26.8922753  54.1836493  29.2560113  29.1352753  52.5906493
  29.7400113  29.8532753  52.6886493  29.6500113  28.7082753  51.9396493
  29.3860113  29.1782753  52.5086493  23.5520113  31.9802753  53.7676493
  23.9060113  31.8022753  54.5446493  23.1160113  31.2512753  53.5686493
  23.5400113  31.8462753  53.8536493  24.5240113  22.7272753  46.4056493
  25.0040113  23.4262753  46.6136493  24.8970113  22.0802753  46.8566493
  24.6500113  22.7352753  46.5026493  27.7430113  29.6832753  45.9046493
  26.9460113  29.9072753  46.1786493  28.0010113  29.0892753  46.4896493
  27.6630113  29.6282753  46.0316493  21.6350113  34.4952753  40.3526493
  21.4880113  33.7192753  40.7236493  22.3240113  34.3482753  39.8376493
  21.7150113  34.3582753  40.3316493  21.3060113  18.2382753  38.3406493
  21.4030113  18.1312753  39.2016493  20.5980113  18.7442753  38.2756493
  21.2160113  18.2972753  38.4586493  23.9270113  34.0112753  38.7546493
  24.5490113  34.1742753  39.3446493  23.9630113  34.7022753  38.2226493
  24.0240113  34.1372753  38.7636493  31.0030113  27.6812753  50.7506493
  31.0580113  27.8062753  49.8886493  31.7560113  28.0012753  51.0526493
  31.1220113  27.7462753  50.6676493  27.1940113  33.0302753  55.0276493
  27.3580113  33.3132753  55.8366493  27.4570113  33.6912753  54.5226493
  27.2570113  33.1702753  55.0726493  32.0350113  17.9792753  53.7376493
  31.3980113  17.5792753  53.2956493  32.0610113  17.5482753  54.4956493
  31.9450113  17.8572753  53.7836493  18.4280113  26.5452753  39.5836493
  18.7520113  25.7662753  39.3616493  19.0740113  26.9132753  40.0386493
  18.5710113  26.4842753  39.6176493  26.7340113  27.4872753  50.3506493
  26.5790113  28.0972753  50.9546493  27.2680113  26.9292753  50.7566493
  26.7900113  27.4952753  50.4996493  15.4250113  18.2062753  40.5516493
  15.5540113  17.4982753  40.0596493  15.0580113  17.8882753  41.2766493
  15.3900113  18.0542753  40.5866493  25.1180113  25.8872753  41.0086493
  25.1770113  26.5372753  41.5876493  24.9290113  25.1912753  41.4996493
  25.0990113  25.8802753  41.1666493  30.3440113  30.2162753  46.8776493
  29.8650113  30.5142753  46.2116493  29.9880113  29.4402753  47.0556493
  30.2210113  30.1452753  46.8056493  19.6140113  20.4042753  37.5206493
  19.1030113  20.4572753  36.8146493  20.3980113  20.6442753  37.2246493
  19.6540113  20.4472753  37.3726493  24.3410113  27.9342753  45.4396493
  23.4940113  27.7402753  45.5206493  24.6650113  27.7692753  46.2326493
  24.2630113  27.8812753  45.5686493  21.0930113  34.6642753  36.3256493
  21.5320113  33.9672753  36.6136493  21.3000113  35.2882753  36.8986493
  21.1890113  34.6532753  36.4526493  18.1890113  27.6272753  47.7556493
  18.9110113  28.1152753  47.7186493  17.9190113  27.5972753  46.9266493
  18.2560113  27.6952753  47.6276493  21.4190113  22.7982753  44.4906493
  22.2650113  22.6082753  44.5886493  21.0490113  22.0212753  44.3526493
  21.4890113  22.6552753  44.4846493  16.2400113  24.1362753  41.1456493
  16.7290113  23.8442753  41.8066493  16.3690113  23.5432753  40.5186493
  16.3310113  24.0052753  41.1506493  31.2750113  27.1582753  47.9966493
  31.2680113  26.3822753  48.3946493  30.4340113  27.3922753  47.9896493
  31.1500113  27.0782753  48.0546493  20.7650113  25.5702753  36.6316493
  20.1550113  25.1652753  37.1056493  20.3790113  25.6882753  35.8586493
  20.6180113  25.5272753  36.5876493  17.5840113  28.6792753  52.0336493
  17.1630113  28.1612753  51.4726493  17.2320113  29.4652753  51.8906493
  17.4700113  28.7192753  51.9296493  32.5310113  27.2292753  45.4336493
  32.2450113  27.6302753  46.1536493  33.3910113  27.1672753  45.5606493
  32.6160113  27.2792753  45.5586493  22.2200113  24.0312753  39.3416493
  22.4920113  24.8572753  39.4086493  21.3570113  24.1062753  39.2456493
  22.1330113  24.1642753  39.3366493  30.1930113  21.1532753  53.9736493
  29.6680113  21.6122753  54.4976493  29.8320113  20.3582753  53.9676493
  30.0620113  21.1032753  54.0496493  15.7000113  20.0012753  45.8776493
  15.7440113  20.3452753  45.0766493  16.4550113  20.2382753  46.2446493
  15.8180113  20.0872753  45.8136493  33.6620113  32.8622753  45.9626493
  33.9520113  33.1192753  45.1816493  34.3570113  32.9582753  46.4816493
  33.8080113  32.9142753  45.9236493  28.6850113  24.7222753  54.0496493
  28.7580113  24.8262753  54.9126493  28.0510113  25.2802753  53.8286493
  28.6020113  24.8202753  54.1446493  30.9530113  25.0412753  52.4146493
  31.2720113  25.8272753  52.6176493  30.5830113  24.7712753  53.1576493
  30.9460113  25.1172753  52.5546493  30.7490113  23.2992753  43.6036493
  30.0040113  22.9762753  43.9216493  30.7510113  24.1252753  43.8836493
  30.6390113  23.3732753  43.6916493  33.6510113  25.5832753  55.1496493
  33.5990113  25.2422753  54.3486493  34.3880113  26.0502753  55.1276493
  33.7520113  25.6022753  55.0276493  33.1890113  29.2592753  51.3556493
  33.8170113  28.7102753  51.0996493  33.1280113  29.8242753  50.6936493
  33.2730113  29.2622753  51.2196493  22.3230113  30.4902753  48.6516493
  22.0250113  31.0822753  49.2186493  22.3780113  30.9322753  47.9026493
  22.2870113  30.6432753  48.6246493  20.3020113  29.4402753  52.0496493
  19.4960113  29.1502753  52.2166493  20.2130113  30.3082753  52.0556493
  20.1700113  29.5252753  52.0746493  29.6610113  19.6292753  51.0646493
  30.4050113  20.0812753  51.0016493  29.0950113  20.0992753  50.5956493
  29.6880113  19.7662753  50.9866493  24.8390113  26.9132753  48.1426493
  25.3150113  27.2872753  48.7706493  24.0160113  27.0472753  48.4016493
  24.7880113  26.9882753  48.2736493  21.5490113  22.5162753  50.8836493
  21.7100113  21.7722753  51.3106493  21.5040113  22.2672753  50.0486493
  21.5660113  22.3692753  50.8236493  24.1030113  34.3062753  43.3706493
  24.6490113  34.9852753  43.4246493  23.7530113  34.3882753  42.5756493
  24.1320113  34.4192753  43.2606493  30.9460113  17.6092753  48.7346493
  30.6660113  18.4342753  48.6906493  31.6620113  17.6622753  49.2306493
  31.0110113  17.7392753  48.8016493  23.3010113  18.3242753  50.7636493
  24.0060113  18.6442753  50.3616493  23.5420113  17.5172753  50.9906493
  23.4400113  18.2522753  50.7376493  22.2860113  32.5342753  46.7596493
  21.6620113  33.1162753  46.5776493  22.5340113  32.2482753  45.9736493
  22.2300113  32.5782753  46.6166493  26.5950113  29.1682753  53.7486493
  27.3520113  29.4542753  53.4226493  26.0480113  29.2202753  53.0706493
  26.6260113  29.2182753  53.5996493  23.8800113  27.3102753  36.6746493
  23.0750113  27.1332753  36.3896493  23.8470113  28.1612753  36.8666493
  23.7560113  27.4092753  36.6616493  19.8100113  23.3772753  46.8246493
  20.2500113  23.2742753  46.0786493  20.3550113  23.0642753  47.4296493
  19.9550113  23.3162753  46.8036493  27.8260113  22.4792753  52.4166493
  27.1780113  22.9492753  52.7646493  28.3910113  22.3902753  53.0756493
  27.8140113  22.5352753  52.5656493  27.5140113  24.0162753  48.7146493
  27.8160113  24.4362753  49.4176493  27.5500113  23.1762753  48.9466493
  27.5640113  23.9542753  48.8526493  24.9390113  34.1832753  52.6396493
  25.4170113  33.5832753  52.2236493  24.5880113  33.7402753  53.3046493
  24.9580113  34.0292753  52.6766493  30.0620113  23.4632753  40.9666493
  30.2690113  23.2622753  41.7906493  30.8180113  23.7312753  40.6246493
  30.2040113  23.4732753  41.0376493  23.3570113  18.3622753  46.8716493
  22.5310113  18.2132753  47.1086493  23.3170113  18.3972753  46.0006493
  23.2290113  18.3452753  46.7776493  31.0840113  19.5462753  42.4406493
  30.3700113  19.0752753  42.6116493  30.9220113  19.8872753  41.6546493
  30.9550113  19.5272753  42.3496493  24.9980113  29.4022753  51.6596493
  24.2030113  29.3382753  52.0106493  25.0690113  30.2492753  51.4646493
  24.8910113  29.5172753  51.6826493  15.9220113  18.7602753  52.9066493
  15.7820113  19.5552753  52.5756493  15.1360113  18.5172753  53.1956493
  15.7850113  18.8422753  52.9006493  20.8280113  35.6092753  46.9766493
  20.8390113  35.6682753  47.8466493  20.4030113  34.8622753  46.8266493
  20.7670113  35.5072753  47.0826493  18.9860113  21.5042753  40.1316493
  19.1120113  21.1752753  39.3336493  18.1740113  21.2552753  40.3306493
  18.8850113  21.4192753  40.0436493  27.7430113  28.6572753  43.1756493
  27.8190113  28.9982753  43.9746493  27.9120113  27.8102753  43.2966493
  27.7790113  28.5822753  43.3116493  25.2650113  27.9312753  42.7406493
  24.9670113  27.6162753  43.4976493  25.9600113  28.4042753  42.9756493
  25.3240113  27.9542753  42.8876493  25.4870113  32.0492753  50.7676493
  26.1740113  31.9352753  51.2926493  25.6210113  32.8402753  50.4236493
  25.6080113  32.1492753  50.7946493  33.6630113  24.6582753  52.5786493
  32.8080113  24.5362753  52.7046493  33.8160113  24.2632753  51.8156493
  33.5590113  24.5812753  52.4846493  28.1760113  25.3232753  51.1546493
  27.9210113  24.6042753  51.5766493  28.9970113  25.4392753  51.4246493
  28.2600113  25.2342753  51.2566493  17.5920113  35.1072753  52.4186493
  16.9380113  34.5382753  52.5166493  17.2170113  35.8802753  52.5696493
  17.4400113  35.1372753  52.4556493  26.1100113  26.5132753  54.3416493
  26.4330113  27.1992753  53.9096493  25.4060113  26.8362753  54.7436493
  26.0530113  26.6622753  54.3366493  25.8950113  29.9772753  48.2006493
  25.2010113  30.3792753  48.5436493  26.5720113  30.4102753  48.5396493
  25.8920113  30.1002753  48.3016493  18.9630113  23.5152753  50.5476493
  19.3380113  24.1342753  50.0606493  19.6370113  23.0412753  50.8326493
  19.1180113  23.5372753  50.5176493  16.7380113  21.9632753  49.8226493
  16.8150113  21.7942753  48.9696493  17.4840113  22.3692753  50.0196493
  16.8590113  21.9982753  49.7256493  19.2920113  19.3732753  52.2336493
  19.2110113  18.5292753  52.4396493  18.9780113  19.4172753  51.4206493
  19.2340113  19.2552753  52.1436493  26.2170113  31.5682753  41.3696493
  26.0120113  32.4012753  41.2106493  25.4420113  31.1862753  41.4916493
  26.0720113  31.6352753  41.3646493  31.3990113  24.7492753  49.6186493
  31.3970113  23.8862753  49.7426493  31.4660113  25.0732753  50.4256493
  31.4090113  24.6692753  49.7556493  16.1350113  27.1892753  50.0466493
  16.4550113  27.4082753  49.2656493  16.0350113  26.3242753  49.9916493
  16.1670113  27.0942753  49.9236493  17.5910113  23.1252753  36.6646493
  16.9190113  23.1392753  37.2206493  17.6860113  22.2772753  36.4806493
  17.5060113  23.0022753  36.7196493  27.2780113  19.5492753  53.4006493
  27.3700113  20.2612753  53.8946493  26.6410113  19.1042753  53.7976493
  27.1970113  19.5882753  53.5326493  26.2720113  19.7392753  44.2546493
  25.5720113  20.2572753  44.1986493  26.3100113  19.3592753  43.4706493
  26.1740113  19.7602753  44.1306493  21.5790113  31.8302753  37.7786493
  22.0200113  31.9102753  38.5266493  20.7740113  31.6142753  38.0366493
  21.5250113  31.8102753  37.9276493  29.8700113  20.2552753  47.0546493
  30.7250113  20.3542753  47.1996493  29.5010113  20.8082753  47.6196493
  29.9420113  20.3522753  47.1596493  20.8980113  26.4812753  51.4316493
  20.5020113  27.2552753  51.5066493  20.4920113  26.1082753  50.7556493
  20.7800113  26.5402753  51.3426493  30.1740113  25.5352753  45.5456493
  30.8400113  26.0762753  45.7056493  29.8290113  25.8462753  44.8066493
  30.2210113  25.6612753  45.4606493  18.9080113  30.9002753  38.3796493
  18.6640113  30.5932753  39.1596493  18.8750113  30.1972753  37.8636493
  18.8670113  30.7512753  38.4186493  21.7270113  29.1452753  37.1226493
  20.9090113  28.8772753  37.2626493  21.6990113  29.9972753  37.3076493
  21.6020113  29.2322753  37.1706493  21.3270113  19.4582753  48.8816493
  20.4630113  19.5422753  48.9616493  21.5470113  18.9442753  49.5506493
  21.2320113  19.3952753  48.9926493  33.3450113  18.0932753  50.2106493
  33.2930113  18.0492753  51.0806493  34.0320113  17.5902753  50.0206493
  33.4390113  18.0132753  50.3106493  25.4300113  20.2062753  47.2556493
  24.6930113  19.7522753  47.3686493  26.0010113  19.8042753  47.7786493
  25.4050113  20.0792753  47.3496493  28.1620113  31.0542753  49.0436493
  28.3680113  31.3552753  49.8356493  28.1010113  31.7762753  48.5586493
  28.1830113  31.2052753  49.0886493  22.9330113  24.5352753  52.4596493
  22.6110113  23.9592753  51.8896493  22.5740113  25.2902753  52.2136493
  22.8330113  24.5612753  52.3396493  23.7290113  17.7872753  37.0866493
  23.8070113  18.0342753  36.2536493  22.9860113  18.1642753  37.3446493
  23.6310113  17.8792753  37.0016493  32.9740113  29.6932753  48.5016493
  32.9420113  28.8312753  48.3666493  32.2810113  29.9952753  48.0676493
  32.8670113  29.6102753  48.4176493  21.3680113  34.8912753  52.7076493
  21.4090113  35.0172753  53.5706493  22.0190113  34.3312753  52.5516493
  21.4700113  34.8272753  52.8126493  18.5470113  19.5412753  49.5296493
  18.2040113  18.7742753  49.2956493  17.8520113  20.0652753  49.5936493
  18.3940113  19.5052753  49.5046493  27.5930113  18.3972753  46.5066493
  28.2630113  18.9412753  46.6336493  27.0900113  18.8212753  45.9336493
  27.6180113  18.5402753  46.4406493  18.9610113  33.2742753  54.0676493
  19.5560113  33.7052753  54.5396493  18.5970113  33.8982753  53.5786493
  18.9950113  33.4302753  54.0646493  26.9520113  24.2052753  43.9996493
  27.5030113  23.5982753  44.2996493  26.5270113  24.4682753  44.7146493
  26.9710113  24.1542753  44.1486493  17.2000113  22.8552753  43.4856493
  16.8320113  23.1572753  44.2166493  17.7340113  22.2262753  43.7696493
  17.2240113  22.8072753  43.6356493  16.8880113  31.2632753  50.9966493
  16.3140113  31.6792753  51.5056493  17.6210113  31.7282753  51.0916493
  16.9120113  31.3932753  51.0856493  18.6740113  34.5302753  39.7716493
  18.5290113  34.6862753  38.9256493  19.5400113  34.6092753  39.8496493
  18.7810113  34.5652753  39.6586493  22.8410113  26.9272753  39.4996493
  22.9410113  27.0662753  38.6446493  23.6590113  26.8672753  39.7956493
  22.9760113  26.9382753  39.4166493  32.1960113  27.4092753  53.7126493
  32.8300113  27.2392753  54.2866493  32.6130113  27.8122753  53.0606493
  32.3510113  27.4442753  53.7016493  32.8210113  21.9732753  54.4506493
  32.6250113  22.6172753  55.0056493  32.0990113  21.4832753  54.4426493
  32.6860113  21.9962753  54.5316493  32.7200113  22.9142753  47.4216493
  31.8870113  23.1642753  47.3496493  32.6640113  22.0742753  47.6506493
  32.5890113  22.8272753  47.4446493  21.9800113  19.9022753  52.6156493
  22.2140113  19.3262753  52.0026493  21.1380113  19.7212753  52.7566493
  21.8900113  19.7902753  52.5456493  29.6070113  27.5202753  55.0676493
  30.4780113  27.4842753  55.0316493  29.3880113  27.9402753  54.3356493
  29.7040113  27.5762753  54.9546493  19.3610113  33.3452753  46.2486493
  19.2820113  32.5352753  45.9326493  18.9170113  33.8322753  45.6766493
  19.2840113  33.2972753  46.1176493  24.9620113  29.4642753  38.7316493
  25.6790113  29.1172753  38.3756493  24.9280113  30.2642753  38.3836493
  25.0630113  29.5312753  38.6276493  16.9330113  35.5892753  49.8296493
  17.4260113  35.5332753  50.5476493  17.1210113  34.8562753  49.3946493
  17.0340113  35.4722753  49.8716493  26.3710113  18.1052753  22.9704083
  26.1260113  18.5932753  22.2904083  27.2340113  18.0322753  22.8704083
  26.4620113  18.1662753  22.8554083  16.0490113  29.1612753  23.0974083
  15.6080113  29.2792753  23.8404083  15.7660113  28.3862753  22.8124083
  15.9420113  29.0642753  23.1654083  32.3240113  32.4622753  20.6124083
  33.0250113  31.9432753  20.6084083  31.7370113  32.0172753  20.1434083
  32.3410113  32.3192753  20.5424083  15.7920113  22.9532753  19.6044083
  15.0140113  23.1152753  19.2444083  15.8310113  22.0822753  19.6264083
  15.6830113  22.8482753  19.5544083  18.9310113  28.2162753  18.2764083
  18.5390113  27.8452753  17.5904083  18.8510113  27.6182753  18.9054083
  18.8610113  28.0732753  18.2674083  18.5580113  29.8572753  22.1764083
  19.1660113  29.6872753  22.7794083  17.8070113  29.7172753  22.5974083
  18.5370113  29.8112753  22.3274083  22.8400113  19.1922753  22.1254083
  22.7700113  19.8692753  21.5794083  23.5810113  18.8042753  21.8764083
  22.9390113  19.2352753  22.0074083  17.4490113  32.9482753  18.2534083
  17.9160113  33.0322753  17.5214083  17.9040113  32.3702753  18.7224083
  17.5850113  32.8752753  18.2144083  15.9890113  31.8962753  29.3524083
  16.1180113  31.6162753  30.1684083  15.3790113  31.3552753  29.0434083
  15.9180113  31.7752753  29.4274083  22.5630113  29.4212753  34.4194083
  22.3270113  29.4182753  35.2594083  21.8150113  29.2732753  33.9954083
  22.4170113  29.3982753  34.4804083  21.9430113  22.0272753  28.9014083
  22.6210113  22.0452753  28.3524083  21.8980113  21.1912753  29.1464083
  22.0360113  21.9062753  28.8564083  22.5450113  32.6132753  31.6824083
  22.6830113  33.3732753  31.2754083  23.3360113  32.2482753  31.7094083
  22.6820113  32.6722753  31.6264083  19.4360113  24.5172753  23.5774083
  20.2530113  24.3302753  23.8204083  18.9590113  23.9032753  23.9734083
  19.4860113  24.3992753  23.6724083  23.6400113  30.4982753  26.1874083
  23.9880113  29.6992753  26.2174083  24.3050113  31.0022753  25.9324083
  23.7900113  30.4542753  26.1544083  23.6970113  29.9472753  22.3984083
  24.0280113  29.3032753  22.8844083  23.9370113  29.7362753  21.5874083
  23.7810113  29.8212753  22.3504083  20.0330113  19.6112753  22.8434083
  19.7370113  20.1122753  22.1934083  20.9000113  19.6892753  22.7864083
  20.1170113  19.6972753  22.7394083  30.2230113  17.0382753  32.8514083
  30.0650113  17.8072753  32.4694083  29.4510113  16.8182753  33.1954083
  30.0850113  17.1192753  32.8464083  23.0120113  18.7532753  25.0664083
  23.0850113  19.6132753  25.1954083  22.9740113  18.6782753  24.1984083
  23.0170113  18.8692753  24.9574083  27.6850113  21.6792753  17.3654083
  27.2350113  22.3602753  17.6724083  27.7990113  21.1752753  18.0684083
  27.6360113  21.7052753  17.5144083  15.8910113  24.1782753  26.5674083
  15.6350113  25.0092753  26.4924083  15.2270113  23.7952753  26.9844083
  15.7550113  24.2442753  26.6184083  15.8010113  33.8882753  24.4674083
  15.2090113  34.4462753  24.1544083  16.2270113  33.6192753  23.7554083
  15.7770113  33.9302753  24.3164083  21.6410113  31.7322753  21.9474083
  21.0620113  31.4572753  22.5394083  22.2650113  31.1232753  21.9724083
  21.6480113  31.6022753  22.0384083  27.7840113  34.0202753  19.4694083
  28.5110113  34.4922753  19.5714083  28.0130113  33.2262753  19.7494083
  27.9260113  33.9732753  19.5264083  25.9520113  34.4122753  21.4594083
  26.1660113  34.9392753  22.1214083  26.7190113  34.2382753  21.0804083
  26.0970113  34.4642753  21.5014083  18.9200113  18.9952753  27.0584083
  18.3990113  18.3672753  26.7504083  19.5110113  18.5582753  27.5294083
  18.9310113  18.8372753  27.0824083  22.2260113  21.1282753  36.3564083
  22.3430113  20.6742753  35.6204083  22.5140113  21.9262753  36.1534083
  22.2860113  21.1792753  36.2174083  17.3460113  32.5582753  22.3984083
  18.0020113  31.9832753  22.4134083  17.7350113  33.3072753  22.1774083
  17.5010113  32.5832753  22.3684083  33.0790113  21.6522753  23.6604083
  32.7330113  22.3302753  24.0864083  32.4430113  21.0542753  23.6764083
  32.9340113  21.6642753  23.7254083  28.3910113  34.4222753  29.7644083
  29.1350113  34.8782753  29.7544083  28.2700113  34.2082753  28.9274083
  28.4830113  34.4582753  29.6394083  17.9590113  20.7252753  35.3404083
  17.1810113  20.3352753  35.2684083  18.4500113  20.3132753  34.7494083
  17.9160113  20.6062753  35.2424083  18.1640113  31.0452753  25.8984083
  18.5870113  30.6892753  25.2244083  18.4880113  30.6232753  26.5904083
  18.2740113  30.9302753  25.9014083  21.3950113  33.8972753  25.1944083
  22.2390113  34.0012753  24.9994083  21.0980113  34.7152753  25.2624083
  21.4760113  34.0332753  25.1754083  24.6080113  18.3682753  34.5084083
  24.7860113  17.5592753  34.2334083  24.4650113  18.8092753  33.7694083
  24.6130113  18.3142753  34.3584083  25.2020113  23.2942753  23.2814083
  25.4890113  23.0622753  22.4914083  25.9340113  23.3732753  23.7504083
  25.3520113  23.2712753  23.2344083  25.9240113  23.6332753  18.4024083
  26.2050113  24.4212753  18.6514083  25.1480113  23.7982753  18.0394083
  25.8510113  23.7742753  18.3854083  29.9650113  35.6072753  19.8694083
  30.6300113  35.4592753  19.3244083  30.3250113  35.5242753  20.6594083
  30.1170113  35.5732753  19.9054083  20.3930113  35.1162753  30.9344083
  20.6850113  35.0492753  31.7544083  19.7670113  34.5112753  30.8894083
  20.3440113  35.0172753  31.0494083  32.7540113  19.9752753  29.0294083
  33.5110113  20.0472753  28.6014083  32.8170113  19.2022753  29.4284083
  32.8750113  19.8722753  29.0244083  15.3070113  21.2732753  32.9264083
  15.3030113  21.8602753  33.5724083  15.9010113  21.5852753  32.3694083
  15.3940113  21.4062753  32.9394083  16.2440113  20.8682753  21.8414083
  16.1300113  20.0042753  21.8724083  15.7690113  21.1622753  22.5114083
  16.1570113  20.7842753  21.9444083  25.5480113  22.0762753  20.5864083
  25.0400113  21.4142753  20.3324083  25.6000113  22.5802753  19.8764083
  25.4810113  22.0532753  20.4444083  26.0970113  34.7712753  30.9664083
  26.8650113  34.6912753  30.5604083  25.5140113  34.6502753  30.3284083
  26.1240113  34.7412753  30.8124083  25.5480113  19.0172753  20.4774083
  25.0930113  18.6152753  19.8514083  26.3210113  19.1722753  20.1024083
  25.5950113  18.9812753  20.3294083  32.3740113  35.3742753  23.8674083
  31.9190113  36.0912753  24.0684083  31.7600113  34.8032753  23.6254083
  32.2160113  35.3962753  23.8614083  24.1460113  21.3842753  24.9994083
  24.2200113  21.9522753  24.3414083  24.2670113  21.8762753  25.7094083
  24.1740113  21.5412753  25.0074083  29.3710113  31.2192753  23.4114083
  30.0720113  30.7372753  23.6004083  28.7110113  30.6502753  23.4564083
  29.3770113  31.0642753  23.4454083  19.7470113  32.1292753  32.6234083
  20.5880113  32.1922753  32.4014083  19.7100113  32.5262753  33.3994083
  19.8660113  32.1972753  32.7054083  18.7540113  17.2072753  23.3474083
  19.2900113  17.8952753  23.3374083  18.7570113  16.9332753  22.5194083
  18.8330113  17.2682753  23.2234083  21.7100113  27.6402753  27.3724083
  21.8820113  27.4302753  28.2014083  21.0550113  27.1062753  27.1564083
  21.6390113  27.5302753  27.4634083  22.4600113  27.5782753  29.9624083
  22.5130113  28.4252753  30.1644083  22.1750113  27.2082753  30.6994083
  22.4260113  27.6482753  30.1004083  29.1940113  17.4982753  23.7234083
  29.2430113  17.1802753  24.5344083  29.5170113  16.8542753  23.2304083
  29.2490113  17.3562753  23.7704083  15.2810113  31.9492753  36.1734083
  16.0370113  32.2982753  36.4314083  15.4580113  31.0962753  36.1164083
  15.4190113  31.8742753  36.2034083  31.6580113  21.7342753  32.0314083
  32.4300113  21.5092753  32.3684083  31.1830113  21.9512753  32.7314083
  31.7020113  21.7332753  32.1844083  19.2020113  21.0172753  25.0014083
  19.4740113  20.5872753  24.2934083  19.0260113  20.3812753  25.5724083
  19.2160113  20.8602753  24.9814083  31.8900113  28.7122753  19.2194083
  32.0090113  28.4252753  20.0344083  32.6970113  28.7332753  18.8894083
  32.0260113  28.6732753  19.2914083  19.0260113  28.4442753  24.5504083
  19.8770113  28.3642753  24.3774083  18.6690113  27.7622753  24.1384083
  19.0990113  28.3312753  24.4634083  17.7930113  35.1692753  25.7874083
  17.1200113  34.6712753  25.5424083  18.1960113  35.3542753  25.0364083
  17.7530113  35.1232753  25.6404083  17.3430113  22.1192753  28.0834083
  18.1860113  22.3392753  28.0404083  16.9540113  22.6922753  27.5524083
  17.4100113  22.2362753  27.9984083  29.7850113  25.2492753  18.8044083
  29.5650113  25.9802753  18.3824083  29.3370113  25.3002753  19.5514083
  29.6860113  25.3642753  18.8524083  21.3940113  28.4512753  22.7854083
  22.1070113  28.9462753  22.8754083  21.6160113  27.8842753  22.1594083
  21.5320113  28.4402753  22.7064083  33.9720113  20.1102753  18.2574083
  33.3100113  19.5422753  18.2804083  33.7790113  20.6222753  17.5774083
  33.8460113  20.1022753  18.1604083  15.5500113  30.0942753  26.1054083
  14.8830113  30.5822753  26.3814083  16.2300113  30.6392753  26.1344083
  15.5520113  30.2462753  26.1504083  23.1970113  23.8042753  36.2014083
  22.7130113  24.3812753  36.6434083  23.1690113  24.0992753  35.3804083
  23.1210113  23.9332753  36.1454083  15.6160113  26.7782753  21.2084083
  15.4310113  25.9392753  21.3604083  16.2750113  26.7422753  20.6384083
  15.6860113  26.6492753  21.1464083  31.9740113  19.6682753  20.5364083
  32.7200113  19.2612753  20.7354083  32.2370113  20.3832753  20.1114083
  32.1230113  19.7142753  20.5034083  25.9170113  32.1542753  25.1124083
  25.3940113  32.7882753  24.8194083  26.2270113  31.7902753  24.3834083
  25.8850113  32.1942753  24.9614083  15.7880113  30.9422753  20.7834083
  16.3400113  31.5112753  21.1474083  15.5560113  30.4272753  21.4484083
  15.8350113  30.9502753  20.9354083  19.9920113  29.9422753  27.8724083
  20.4590113  30.2312753  28.5504083  20.5640113  29.4642753  27.4184083
  20.1460113  29.9142753  27.9054083  28.4280113  21.9562753  25.6094083
  28.7720113  22.1082753  26.3964083  27.9750113  21.2182753  25.7224083
  28.4120113  21.8692753  25.7424083  15.6180113  29.3912753  18.4114083
  16.3740113  28.9592753  18.4694083  15.6330113  29.9232753  19.1024083
  15.7320113  29.4062753  18.5224083  16.5580113  27.6122753  26.4164083
  16.9890113  27.4832753  25.6694083  16.3530113  28.4602753  26.3904083
  16.5910113  27.7182753  26.3024083  22.9040113  21.1762753  20.0664083
  22.9020113  21.0592753  19.2014083  22.7230113  22.0242753  20.1584083
  22.8770113  21.2842753  19.9524083  20.6420113  31.1282753  24.6984083
  20.7680113  31.9712753  24.8854083  21.3100113  30.7292753  25.0944083
  20.7600113  31.1942753  24.7844083  18.7720113  24.6112753  34.5604083
  18.2360113  24.1052753  35.0284083  18.7920113  24.2212753  33.7804083
  18.6950113  24.4782753  34.5144083  19.2570113  24.0082753  19.7004083
  19.1290113  23.5602753  20.4384083  18.6750113  23.6662753  19.1484083
  19.1520113  23.8912753  19.7284083  19.4240113  25.8382753  26.2994083
  18.6430113  25.7792753  25.9164083  19.4960113  25.0862753  26.7364083
  19.3190113  25.7192753  26.3074083  19.8540113  25.5752753  29.7674083
  19.8790113  24.9002753  29.2164083  19.2080113  26.0712753  29.4554083
  19.7630113  25.5482753  29.6404083  23.9540113  34.3522753  29.1594083
  23.6770113  33.7112753  28.6364083  23.7460113  35.0782753  28.7214083
  23.8830113  34.3652753  29.0174083  26.3940113  19.1942753  31.5924083
  26.5430113  18.3692753  31.3494083  26.7730113  19.2492753  32.3764083
  26.4720113  19.0802753  31.6724083  27.9420113  21.2572753  21.6744083
  28.4320113  21.9742753  21.5974083  27.1520113  21.5182753  21.4114083
  27.8980113  21.4012753  21.6244083  17.6530113  26.9302753  35.3264083
  17.6160113  27.4312753  34.6124083  17.9840113  26.1782753  35.0314083
  17.6960113  26.8922753  35.1774083  23.5520113  31.9802753  34.7614083
  23.9060113  31.8022753  35.5384083  23.1160113  31.2512753  34.5624083
  23.5400113  31.8462753  34.8474083  24.5240113  22.7272753  27.3994083
  25.0040113  23.4262753  27.6074083  24.8970113  22.0802753  27.8504083
  24.6500113  22.7352753  27.4964083  26.7130113  25.8962753  19.6734083
  26.7050113  26.6182753  19.1834083  26.0740113  26.0312753  20.2504083
  26.6180113  26.0232753  19.6864083  27.7300113  32.8322753  27.4984083
  27.1270113  32.5362753  26.9414083  28.2750113  33.2842753  26.9894083
  27.7210113  32.8552753  27.3404083  21.6350113  34.4952753  21.3464083
  21.4880113  33.7192753  21.7174083  22.3240113  34.3482753  20.8314083
  21.7150113  34.3582753  21.3254083  21.3060113  18.2382753  19.3344083
  21.4030113  18.1312753  20.1954083  20.5980113  18.7442753  19.2694083
  21.2160113  18.2972753  19.4524083  23.9270113  34.0112753  19.7484083
  24.5490113  34.1742753  20.3384083  23.9630113  34.7022753  19.2164083
  24.0240113  34.1372753  19.7574083  27.1940113  33.0302753  36.0214083
  27.3580113  33.3132753  36.8304083  27.4570113  33.6912753  35.5164083
  27.2570113  33.1702753  36.0664083  32.0350113  17.9792753  34.7314083
  31.3980113  17.5792753  34.2894083  32.0610113  17.5482753  35.4894083
  31.9450113  17.8572753  34.7774083  18.4280113  26.5452753  20.5774083
  18.7520113  25.7662753  20.3554083  19.0740113  26.9132753  21.0324083
  18.5710113  26.4842753  20.6114083  15.4250113  18.2062753  21.5454083
  15.5540113  17.4982753  21.0534083  15.0580113  17.8882753  22.2704083
  15.3900113  18.0542753  21.5804083  25.1180113  25.8872753  22.0024083
  25.1770113  26.5372753  22.5814083  24.9290113  25.1912753  22.4934083
  25.0990113  25.8802753  22.1604083  19.6140113  20.4042753  18.5144083
  19.1030113  20.4572753  17.8084083  20.3980113  20.6442753  18.2184083
  19.6540113  20.4472753  18.3664083  21.0930113  34.6642753  17.3194083
  21.5320113  33.9672753  17.6074083  21.3000113  35.2882753  17.8924083
  21.1890113  34.6532753  17.4464083  18.1890113  27.6272753  28.7494083
  18.9110113  28.1152753  28.7124083  17.9190113  27.5972753  27.9204083
  18.2560113  27.6952753  28.6214083  21.4190113  22.7982753  25.4844083
  22.2650113  22.6082753  25.5824083  21.0490113  22.0212753  25.3464083
  21.4890113  22.6552753  25.4784083  34.0360113  34.3822753  19.8114083
  34.7300113  33.9152753  19.5634083  33.4970113  33.7842753  20.1484083
  34.0590113  34.2242753  19.8244083  16.2400113  24.1362753  22.1394083
  16.7290113  23.8442753  22.8004083  16.3690113  23.5432753  21.5124083
  16.3310113  24.0052753  22.1444083  20.7650113  25.5702753  17.6254083
  20.1550113  25.1652753  18.0994083  20.3790113  25.6882753  16.8524083
  20.6180113  25.5272753  17.5814083  17.5840113  28.6792753  33.0274083
  17.1630113  28.1612753  32.4664083  17.2320113  29.4652753  32.8844083
  17.4700113  28.7192753  32.9234083  22.2200113  24.0312753  20.3354083
  22.4920113  24.8572753  20.4024083  21.3570113  24.1062753  20.2394083
  22.1330113  24.1642753  20.3304083  30.1930113  21.1532753  34.9674083
  29.6680113  21.6122753  35.4914083  29.8320113  20.3582753  34.9614083
  30.0620113  21.1032753  35.0434083  15.7000113  20.0012753  26.8714083
  15.7440113  20.3452753  26.0704083  16.4550113  20.2382753  27.2384083
  15.8180113  20.0872753  26.8074083  33.6620113  32.8622753  26.9564083
  33.9520113  33.1192753  26.1754083  34.3570113  32.9582753  27.4754083
  33.8080113  32.9142753  26.9174083  30.2670113  31.4652753  18.9384083
  30.6010113  30.6592753  18.9734083  29.5120113  31.3932753  19.3684083
  30.2050113  31.3352753  19.0074083  30.7490113  23.2992753  24.5974083
  30.0040113  22.9762753  24.9154083  30.7510113  24.1252753  24.8774083
  30.6390113  23.3732753  24.6854083  27.6410113  29.3402753  18.3414083
  28.3250113  28.8262753  18.1724083  27.2240113  29.3862753  17.5764083
  27.6800113  29.2712753  18.2034083  22.3230113  30.4902753  29.6454083
  22.0250113  31.0822753  30.2124083  22.3780113  30.9322753  28.8964083
  22.2870113  30.6432753  29.6184083  20.3020113  29.4402753  33.0434083
  19.4960113  29.1502753  33.2104083  20.2130113  30.3082753  33.0494083
  20.1700113  29.5252753  33.0684083  29.6610113  19.6292753  32.0584083
  30.4050113  20.0812753  31.9954083  29.0950113  20.0992753  31.5894083
  29.6880113  19.7662753  31.9804083  21.5490113  22.5162753  31.8774083
  21.7100113  21.7722753  32.3044083  21.5040113  22.2672753  31.0424083
  21.5660113  22.3692753  31.8174083  24.1030113  34.3062753  24.3644083
  24.6490113  34.9852753  24.4184083  23.7530113  34.3882753  23.5694083
  24.1320113  34.4192753  24.2544083  30.9460113  17.6092753  29.7284083
  30.6660113  18.4342753  29.6844083  31.6620113  17.6622753  30.2244083
  31.0110113  17.7392753  29.7954083  23.3010113  18.3242753  31.7574083
  24.0060113  18.6442753  31.3554083  23.5420113  17.5172753  31.9844083
  23.4400113  18.2522753  31.7314083  22.2860113  32.5342753  27.7534083
  21.6620113  33.1162753  27.5714083  22.5340113  32.2482753  26.9674083
  22.2300113  32.5782753  27.6104083  32.3670113  23.8642753  18.5854083
  32.7450113  24.5412753  18.1854083  31.5250113  24.0882753  18.6164083
  32.2980113  23.9972753  18.5304083  23.8800113  27.3102753  17.6684083
  23.0750113  27.1332753  17.3834083  23.8470113  28.1612753  17.8604083
  23.7560113  27.4092753  17.6554083  19.8100113  23.3772753  27.8184083
  20.2500113  23.2742753  27.0724083  20.3550113  23.0642753  28.4234083
  19.9550113  23.3162753  27.7974083  24.9390113  34.1832753  33.6334083
  25.4170113  33.5832753  33.2174083  24.5880113  33.7402753  34.2984083
  24.9580113  34.0292753  33.6704083  30.0620113  23.4632753  21.9604083
  30.2690113  23.2622753  22.7844083  30.8180113  23.7312753  21.6184083
  30.2040113  23.4732753  22.0314083  23.3570113  18.3622753  27.8654083
  22.5310113  18.2132753  28.1024083  23.3170113  18.3972753  26.9944083
  23.2290113  18.3452753  27.7714083  31.0840113  19.5462753  23.4344083
  30.3700113  19.0752753  23.6054083  30.9220113  19.8872753  22.6484083
  30.9550113  19.5272753  23.3434083  24.9980113  29.4022753  32.6534083
  24.2030113  29.3382753  33.0044083  25.0690113  30.2492753  32.4584083
  24.8910113  29.5172753  32.6764083  15.9220113  18.7602753  33.9004083
  15.7820113  19.5552753  33.5694083  15.1360113  18.5172753  34.1894083
  15.7850113  18.8422753  33.8944083  20.8280113  35.6092753  27.9704083
  20.8390113  35.6682753  28.8404083  20.4030113  34.8622753  27.8204083
  20.7670113  35.5072753  28.0764083  18.9860113  21.5042753  21.1254083
  19.1120113  21.1752753  20.3274083  18.1740113  21.2552753  21.3244083
  18.8850113  21.4192753  21.0374083  17.5920113  35.1072753  33.4124083
  16.9380113  34.5382753  33.5104083  17.2170113  35.8802753  33.5634083
  17.4400113  35.1372753  33.4494083  29.1940113  34.8872753  26.2644083
  28.7430113  35.5302753  26.6434083  29.9020113  34.8082753  26.7694083
  29.2320113  34.9702753  26.3954083  25.8950113  29.9772753  29.1944083
  25.2010113  30.3792753  29.5374083  26.5720113  30.4102753  29.5334083
  25.8920113  30.1002753  29.2954083  18.9630113  23.5152753  31.5414083
  19.3380113  24.1342753  31.0544083  19.6370113  23.0412753  31.8264083
  19.1180113  23.5372753  31.5114083  16.7380113  21.9632753  30.8164083
  16.8150113  21.7942753  29.9634083  17.4840113  22.3692753  31.0134083
  16.8590113  21.9982753  30.7194083  32.2970113  24.6032753  21.2564083
  32.4000113  24.5452753  20.3924083  33.0380113  24.2712753  21.5744083
  32.4220113  24.5462753  21.1754083  19.2920113  19.3732753  33.2274083
  19.2110113  18.5292753  33.4334083  18.9780113  19.4172753  32.4144083
  19.2340113  19.2552753  33.1374083  26.2170113  31.5682753  22.3634083
  26.0120113  32.4012753  22.2044083  25.4420113  31.1862753  22.4854083
  26.0720113  31.6352753  22.3584083  16.1350113  27.1892753  31.0404083
  16.4550113  27.4082753  30.2594083  16.0350113  26.3242753  30.9854083
  16.1670113  27.0942753  30.9174083  17.5910113  23.1252753  17.6584083
  16.9190113  23.1392753  18.2144083  17.6860113  22.2772753  17.4744083
  17.5060113  23.0022753  17.7134083  27.2780113  19.5492753  34.3944083
  27.3700113  20.2612753  34.8884083  26.6410113  19.1042753  34.7914083
  27.1970113  19.5882753  34.5264083  26.2720113  19.7392753  25.2484083
  25.5720113  20.2572753  25.1924083  26.3100113  19.3592753  24.4644083
  26.1740113  19.7602753  25.1244083  21.5790113  31.8302753  18.7724083
  22.0200113  31.9102753  19.5204083  20.7740113  31.6142753  19.0304083
  21.5250113  31.8102753  18.9214083  29.8700113  20.2552753  28.0484083
  30.7250113  20.3542753  28.1934083  29.5010113  20.8082753  28.6134083
  29.9420113  20.3522753  28.1534083  20.8980113  26.4812753  32.4254083
  20.5020113  27.2552753  32.5004083  20.4920113  26.1082753  31.7494083
  20.7800113  26.5402753  32.3364083  30.4870113  33.6012753  22.3464083
  30.3130113  32.9472753  22.8964083  31.2000113  33.3302753  21.9234083
  30.5670113  33.4642753  22.3654083  18.9080113  30.9002753  19.3734083
  18.6640113  30.5932753  20.1534083  18.8750113  30.1972753  18.8574083
  18.8670113  30.7512753  19.4124083  21.7270113  29.1452753  18.1164083
  20.9090113  28.8772753  18.2564083  21.6990113  29.9972753  18.3014083
  21.6020113  29.2322753  18.1644083  21.3270113  19.4582753  29.8754083
  20.4630113  19.5422753  29.9554083  21.5470113  18.9442753  30.5444083
  21.2320113  19.3952753  29.9864083  33.3450113  18.0932753  31.2044083
  33.2930113  18.0492753  32.0744083  34.0320113  17.5902753  31.0144083
  33.4390113  18.0132753  31.3044083  25.4300113  20.2062753  28.2494083
  24.6930113  19.7522753  28.3624083  26.0010113  19.8042753  28.7724083
  25.4050113  20.0792753  28.3434083  28.1620113  31.0542753  30.0374083
  28.3680113  31.3552753  30.8294083  28.1010113  31.7762753  29.5524083
  28.1830113  31.2052753  30.0824083  27.6960113  35.2682753  34.2834083
  26.9430113  35.2502753  33.8424083  27.8640113  36.1202753  34.3674083
  27.6100113  35.3912753  34.2304083  22.9330113  24.5352753  33.4534083
  22.6110113  23.9592753  32.8834083  22.5740113  25.2902753  33.2074083
  22.8330113  24.5612753  33.3334083  23.7290113  17.7872753  18.0804083
  23.8070113  18.0342753  17.2474083  22.9860113  18.1642753  18.3384083
  23.6310113  17.8792753  17.9954083  21.3680113  34.8912753  33.7014083
  21.4090113  35.0172753  34.5644083  22.0190113  34.3312753  33.5454083
  21.4700113  34.8272753  33.8064083  31.0790113  32.9532753  28.2924083
  31.6060113  32.8702753  27.6014083  30.6880113  32.1752753  28.3464083
  31.0990113  32.8262753  28.1984083  27.5930113  18.3972753  27.5004083
  28.2630113  18.9412753  27.6274083  27.0900113  18.8212753  26.9274083
  27.6180113  18.5402753  27.4344083  18.9610113  33.2742753  35.0614083
  19.5560113  33.7052753  35.5334083  18.5970113  33.8982753  34.5724083
  18.9950113  33.4302753  35.0584083  17.2000113  22.8552753  24.4794083
  16.8320113  23.1572753  25.2104083  17.7340113  22.2262753  24.7634083
  17.2240113  22.8072753  24.6294083  16.8880113  31.2632753  31.9904083
  16.3140113  31.6792753  32.4994083  17.6210113  31.7282753  32.0854083
  16.9120113  31.3932753  32.0794083  18.6740113  34.5302753  20.7654083
  18.5290113  34.6862753  19.9194083  19.5400113  34.6092753  20.8434083
  18.7810113  34.5652753  20.6524083  22.8410113  26.9272753  20.4934083
  22.9410113  27.0662753  19.6384083  23.6590113  26.8672753  20.7894083
  22.9760113  26.9382753  20.4104083  32.0010113  34.9912753  17.9734083
  32.6380113  34.8572753  18.5544083  31.6600113  34.1972753  17.8564083
  32.0450113  34.8542753  18.0414083  28.0760113  31.2562753  20.2954083
  27.8250113  31.1282753  21.1214083  27.7590113  30.5612753  19.8744083
  27.9920113  31.1352753  20.3554083  32.8210113  21.9732753  35.4444083
  32.6250113  22.6172753  35.9994083  32.0990113  21.4832753  35.4364083
  32.6860113  21.9962753  35.5254083  21.9800113  19.9022753  33.6094083
  22.2140113  19.3262753  32.9964083  21.1380113  19.7212753  33.7504083
  21.8900113  19.7902753  33.5394083  19.3610113  33.3452753  27.2424083
  19.2820113  32.5352753  26.9264083  18.9170113  33.8322753  26.6704083
  19.2840113  33.2972753  27.1114083  24.9620113  29.4642753  19.7254083
  25.6790113  29.1172753  19.3694083  24.9280113  30.2642753  19.3774083
  25.0630113  29.5312753  19.6214083  16.9330113  35.5892753  30.8234083
  17.4260113  35.5332753  31.5414083  17.1210113  34.8562753  30.3884083
  17.0340113  35.4722753  30.8654083  26.3710113  18.1052753   3.9641673
  26.1260113  18.5932753   3.2841673  27.2340113  18.0322753   3.8641673
  26.4620113  18.1662753   3.8491673  26.1800113  25.0212753   8.6351673
  25.6560113  25.6172753   8.9981673  26.5770113  24.6532753   9.3191673
  26.1610113  25.0552753   8.7901673  16.0490113  29.1612753   4.0911673
  15.6080113  29.2792753   4.8341673  15.7660113  28.3862753   3.8061673
  15.9420113  29.0642753   4.1591673  28.8510113  26.0882753   5.3111673
  28.9310113  26.0922753   4.4421673  28.2670113  25.4562753   5.4601673
  28.7760113  25.9952753   5.2051673  18.5580113  29.8572753   3.1701673
  19.1660113  29.6872753   3.7731673  17.8070113  29.7172753   3.5911673
  18.5370113  29.8112753   3.3211673  22.8400113  19.1922753   3.1191673
  22.7700113  19.8692753   2.5731673  23.5810113  18.8042753   2.8701673
  22.9390113  19.2352753   3.0011673  15.9890113  31.8962753  10.3461673
  16.1180113  31.6162753  11.1621673  15.3790113  31.3552753  10.0371673
  15.9180113  31.7752753  10.4211673  22.5630113  29.4212753  15.4131673
  22.3270113  29.4182753  16.2531673  21.8150113  29.2732753  14.9891673
  22.4170113  29.3982753  15.4741673  17.4350113  26.4172753   4.5481673
  16.9730113  26.0252753   3.9211673  18.1350113  25.9042753   4.6401673
  17.4700113  26.2842753   4.4691673  21.9430113  22.0272753   9.8951673
  22.6210113  22.0452753   9.3461673  21.8980113  21.1912753  10.1401673
  22.0360113  21.9062753   9.8501673  22.5450113  32.6132753  12.6761673
  22.6830113  33.3732753  12.2691673  23.3360113  32.2482753  12.7031673
  22.6820113  32.6722753  12.6201673  19.4360113  24.5172753   4.5711673
  20.2530113  24.3302753   4.8141673  18.9590113  23.9032753   4.9671673
  19.4860113  24.3992753   4.6661673  23.6400113  30.4982753   7.1811673
  23.9880113  29.6992753   7.2111673  24.3050113  31.0022753   6.9261673
  23.7900113  30.4542753   7.1481673  23.6970113  29.9472753   3.3921673
  24.0280113  29.3032753   3.8781673  23.9370113  29.7362753   2.5811673
  23.7810113  29.8212753   3.3441673  20.0330113  19.6112753   3.8371673
  19.7370113  20.1122753   3.1871673  20.9000113  19.6892753   3.7801673
  20.1170113  19.6972753   3.7331673  30.2230113  17.0382753  13.8451673
  30.0650113  17.8072753  13.4631673  29.4510113  16.8182753  14.1891673
  30.0850113  17.1192753  13.8401673  23.0120113  18.7532753   6.0601673
  23.0850113  19.6132753   6.1891673  22.9740113  18.6782753   5.1921673
  23.0170113  18.8692753   5.9511673  15.8910113  24.1782753   7.5611673
  15.6350113  25.0092753   7.4861673  15.2270113  23.7952753   7.9781673
  15.7550113  24.2442753   7.6121673  15.8010113  33.8882753   5.4611673
  15.2090113  34.4462753   5.1481673  16.2270113  33.6192753   4.7491673
  15.7770113  33.9302753   5.3101673  21.6410113  31.7322753   2.9411673
  21.0620113  31.4572753   3.5331673  22.2650113  31.1232753   2.9661673
  21.6480113  31.6022753   3.0321673  25.9520113  34.4122753   2.4531673
  26.1660113  34.9392753   3.1151673  26.7190113  34.2382753   2.0741673
  26.0970113  34.4642753   2.4951673  18.9200113  18.9952753   8.0521673
  18.3990113  18.3672753   7.7441673  19.5110113  18.5582753   8.5231673
  18.9310113  18.8372753   8.0761673  22.2260113  21.1282753  17.3501673
  22.3430113  20.6742753  16.6141673  22.5140113  21.9262753  17.1471673
  22.2860113  21.1792753  17.2111673  17.3460113  32.5582753   3.3921673
  18.0020113  31.9832753   3.4071673  17.7350113  33.3072753   3.1711673
  17.5010113  32.5832753   3.3621673  33.0790113  21.6522753   4.6541673
  32.7330113  22.3302753   5.0801673  32.4430113  21.0542753   4.6701673
  32.9340113  21.6642753   4.7191673  28.3910113  34.4222753  10.7581673
  29.1350113  34.8782753  10.7481673  28.2700113  34.2082753   9.9211673
  28.4830113  34.4582753  10.6331673  17.9590113  20.7252753  16.3341673
  17.1810113  20.3352753  16.2621673  18.4500113  20.3132753  15.7431673
  17.9160113  20.6062753  16.2361673  18.1640113  31.0452753   6.8921673
  18.5870113  30.6892753   6.2181673  18.4880113  30.6232753   7.5841673
  18.2740113  30.9302753   6.8951673  21.3950113  33.8972753   6.1881673
  22.2390113  34.0012753   5.9931673  21.0980113  34.7152753   6.2561673
  21.4760113  34.0332753   6.1691673  24.6080113  18.3682753  15.5021673
  24.7860113  17.5592753  15.2271673  24.4650113  18.8092753  14.7631673
  24.6130113  18.3142753  15.3521673  25.2020113  23.2942753   4.2751673
  25.4890113  23.0622753   3.4851673  25.9340113  23.3732753   4.7441673
  25.3520113  23.2712753   4.2281673  20.3930113  35.1162753  11.9281673
  20.6850113  35.0492753  12.7481673  19.7670113  34.5112753  11.8831673
  20.3440113  35.0172753  12.0431673  32.7540113  19.9752753  10.0231673
  33.5110113  20.0472753   9.5951673  32.8170113  19.2022753  10.4221673
  32.8750113  19.8722753  10.0181673  15.3070113  21.2732753  13.9201673
  15.3030113  21.8602753  14.5661673  15.9010113  21.5852753  13.3631673
  15.3940113  21.4062753  13.9331673  27.6450113  31.6072753  14.4621673
  27.6110113  31.9892753  15.2461673  28.4990113  31.5652753  14.2911673
  27.7660113  31.6572753  14.5531673  16.2440113  20.8682753   2.8351673
  16.1300113  20.0042753   2.8661673  15.7690113  21.1622753   3.5051673
  16.1570113  20.7842753   2.9381673  18.3860113  33.2782753  11.0501673
  17.6880113  32.7702753  11.1761673  18.6460113  33.0732753  10.2421673
  18.3210113  33.1732753  10.9491673  26.0970113  34.7712753  11.9601673
  26.8650113  34.6912753  11.5541673  25.5140113  34.6502753  11.3221673
  26.1240113  34.7412753  11.8061673  32.3740113  35.3742753   4.8611673
  31.9190113  36.0912753   5.0621673  31.7600113  34.8032753   4.6191673
  32.2160113  35.3962753   4.8551673  24.1460113  21.3842753   5.9931673
  24.2200113  21.9522753   5.3351673  24.2670113  21.8762753   6.7031673
  24.1740113  21.5412753   6.0011673  29.3710113  31.2192753   4.4051673
  30.0720113  30.7372753   4.5941673  28.7110113  30.6502753   4.4501673
  29.3770113  31.0642753   4.4391673  19.7470113  32.1292753  13.6171673
  20.5880113  32.1922753  13.3951673  19.7100113  32.5262753  14.3931673
  19.8660113  32.1972753  13.6991673  18.7540113  17.2072753   4.3411673
  19.2900113  17.8952753   4.3311673  18.7570113  16.9332753   3.5131673
  18.8330113  17.2682753   4.2171673  21.7100113  27.6402753   8.3661673
  21.8820113  27.4302753   9.1951673  21.0550113  27.1062753   8.1501673
  21.6390113  27.5302753   8.4571673  27.9380113  21.5542753  11.8811673
  27.8430113  21.8732753  12.6871673  27.3450113  20.9152753  11.8431673
  27.8360113  21.5062753  11.9951673  22.4600113  27.5782753  10.9561673
  22.5130113  28.4252753  11.1581673  22.1750113  27.2082753  11.6931673
  22.4260113  27.6482753  11.0941673  28.6370113  28.2732753  10.0861673
  28.1230113  27.8612753  10.6571673  28.5110113  29.1172753  10.2671673
  28.5430113  28.3372753  10.1971673  29.1940113  17.4982753   4.7171673
  29.2430113  17.1802753   5.5281673  29.5170113  16.8542753   4.2241673
  29.2490113  17.3562753   4.7641673  15.2810113  31.9492753  17.1671673
  16.0370113  32.2982753  17.4251673  15.4580113  31.0962753  17.1101673
  15.4190113  31.8742753  17.1971673  31.6580113  21.7342753  13.0251673
  32.4300113  21.5092753  13.3621673  31.1830113  21.9512753  13.7251673
  31.7020113  21.7332753  13.1781673  19.2020113  21.0172753   5.9951673
  19.4740113  20.5872753   5.2871673  19.0260113  20.3812753   6.5661673
  19.2160113  20.8602753   5.9751673  19.0260113  28.4442753   5.5441673
  19.8770113  28.3642753   5.3711673  18.6690113  27.7622753   5.1321673
  19.0990113  28.3312753   5.4571673  17.7930113  35.1692753   6.7811673
  17.1200113  34.6712753   6.5361673  18.1960113  35.3542753   6.0301673
  17.7530113  35.1232753   6.6341673  17.3430113  22.1192753   9.0771673
  18.1860113  22.3392753   9.0341673  16.9540113  22.6922753   8.5461673
  17.4100113  22.2362753   8.9921673  34.1240113  33.2212753  14.4671673
  33.4420113  33.5312753  14.0201673  33.7550113  32.7632753  15.1121673
  33.9680113  33.1992753  14.4961673  21.3940113  28.4512753   3.7791673
  22.1070113  28.9462753   3.8691673  21.6160113  27.8842753   3.1531673
  21.5320113  28.4402753   3.7001673  15.5500113  30.0942753   7.0991673
  14.8830113  30.5822753   7.3751673  16.2300113  30.6392753   7.1281673
  15.5520113  30.2462753   7.1441673  23.1970113  23.8042753  17.1951673
  22.7130113  24.3812753  17.6371673  23.1690113  24.0992753  16.3741673
  23.1210113  23.9332753  17.1391673  34.2950113  24.4882753  11.8071673
  34.5100113  23.6882753  11.5311673  33.4450113  24.5482753  11.6181673
  34.2010113  24.3792753  11.7381673  15.6160113  26.7782753   2.2021673
  15.4310113  25.9392753   2.3541673  16.2750113  26.7422753   1.6321673
  15.6860113  26.6492753   2.1401673  25.9170113  32.1542753   6.1061673
  25.3940113  32.7882753   5.8131673  26.2270113  31.7902753   5.3771673
  25.8850113  32.1942753   5.9551673  15.7880113  30.9422753   1.7771673
  16.3400113  31.5112753   2.1411673  15.5560113  30.4272753   2.4421673
  15.8350113  30.9502753   1.9291673  19.9920113  29.9422753   8.8661673
  20.4590113  30.2312753   9.5441673  20.5640113  29.4642753   8.4121673
  20.1460113  29.9142753   8.8991673  28.4280113  21.9562753   6.6031673
  28.7720113  22.1082753   7.3901673  27.9750113  21.2182753   6.7161673
  28.4120113  21.8692753   6.7361673  16.5580113  27.6122753   7.4101673
  16.9890113  27.4832753   6.6631673  16.3530113  28.4602753   7.3841673
  16.5910113  27.7182753   7.2961673  31.9580113  33.6032753  12.5571673
  31.2870113  34.1172753  12.7751673  32.0210113  33.7032753  11.6931673
  31.8680113  33.6942753  12.4621673  20.6420113  31.1282753   5.6921673
  20.7680113  31.9712753   5.8791673  21.3100113  30.7292753   6.0881673
  20.7600113  31.1942753   5.7781673  18.7720113  24.6112753  15.5541673
  18.2360113  24.1052753  16.0221673  18.7920113  24.2212753  14.7741673
  18.6950113  24.4782753  15.5081673  19.4240113  25.8382753   7.2931673
  18.6430113  25.7792753   6.9101673  19.4960113  25.0862753   7.7301673
  19.3190113  25.7192753   7.3011673  19.8540113  25.5752753  10.7611673
  19.8790113  24.9002753  10.2101673  19.2080113  26.0712753  10.4491673
  19.7630113  25.5482753  10.6341673  29.7490113  23.2882753   9.1571673
  29.0870113  23.6162753   9.6201673  29.9360113  23.9222753   8.5881673
  29.6790113  23.4302753   9.1411673  23.9540113  34.3522753  10.1531673
  23.6770113  33.7112753   9.6301673  23.7460113  35.0782753   9.7151673
  23.8830113  34.3652753  10.0111673  26.3940113  19.1942753  12.5861673
  26.5430113  18.3692753  12.3431673  26.7730113  19.2492753  13.3701673
  26.4720113  19.0802753  12.6661673  27.9420113  21.2572753   2.6681673
  28.4320113  21.9742753   2.5911673  27.1520113  21.5182753   2.4051673
  27.8980113  21.4012753   2.6181673  17.6530113  26.9302753  16.3201673
  17.6160113  27.4312753  15.6061673  17.9840113  26.1782753  16.0251673
  17.6960113  26.8922753  16.1711673  29.2560113  29.1352753  14.5781673
  29.7400113  29.8532753  14.6761673  29.6500113  28.7082753  13.9271673
  29.3860113  29.1782753  14.4961673  23.5520113  31.9802753  15.7551673
  23.9060113  31.8022753  16.5321673  23.1160113  31.2512753  15.5561673
  23.5400113  31.8462753  15.8411673  24.5240113  22.7272753   8.3931673
  25.0040113  23.4262753   8.6011673  24.8970113  22.0802753   8.8441673
  24.6500113  22.7352753   8.4901673  31.6850113  29.7662753   4.6481673
  32.0410113  29.4162753   5.3631673  31.6770113  29.1052753   4.0781673
  31.7370113  29.6162753   4.6691673  27.7300113  32.8322753   8.4921673
  27.1270113  32.5362753   7.9351673  28.2750113  33.2842753   7.9831673
  27.7210113  32.8552753   8.3341673  27.7430113  29.6832753   7.8921673
  26.9460113  29.9072753   8.1661673  28.0010113  29.0892753   8.4771673
  27.6630113  29.6282753   8.0191673  21.6350113  34.4952753   2.3401673
  21.4880113  33.7192753   2.7111673  22.3240113  34.3482753   1.8251673
  21.7150113  34.3582753   2.3191673  31.0030113  27.6812753  12.7381673
  31.0580113  27.8062753  11.8761673  31.7560113  28.0012753  13.0401673
  31.1220113  27.7462753  12.6551673  27.1940113  33.0302753  17.0151673
  27.3580113  33.3132753  17.8241673  27.4570113  33.6912753  16.5101673
  27.2570113  33.1702753  17.0601673  32.0350113  17.9792753  15.7251673
  31.3980113  17.5792753  15.2831673  32.0610113  17.5482753  16.4831673
  31.9450113  17.8572753  15.7711673  26.7340113  27.4872753  12.3381673
  26.5790113  28.0972753  12.9421673  27.2680113  26.9292753  12.7441673
  26.7900113  27.4952753  12.4871673  15.4250113  18.2062753   2.5391673
  15.5540113  17.4982753   2.0471673  15.0580113  17.8882753   3.2641673
  15.3900113  18.0542753   2.5741673  25.1180113  25.8872753   2.9961673
  25.1770113  26.5372753   3.5751673  24.9290113  25.1912753   3.4871673
  25.0990113  25.8802753   3.1541673  30.3440113  30.2162753   8.8651673
  29.8650113  30.5142753   8.1991673  29.9880113  29.4402753   9.0431673
  30.2210113  30.1452753   8.7931673  24.3410113  27.9342753   7.4271673
  23.4940113  27.7402753   7.5081673  24.6650113  27.7692753   8.2201673
  24.2630113  27.8812753   7.5561673  18.1890113  27.6272753   9.7431673
  18.9110113  28.1152753   9.7061673  17.9190113  27.5972753   8.9141673
  18.2560113  27.6952753   9.6151673  21.4190113  22.7982753   6.4781673
  22.2650113  22.6082753   6.5761673  21.0490113  22.0212753   6.3401673
  21.4890113  22.6552753   6.4721673  16.2400113  24.1362753   3.1331673
  16.7290113  23.8442753   3.7941673  16.3690113  23.5432753   2.5061673
  16.3310113  24.0052753   3.1381673  31.2750113  27.1582753   9.9841673
  31.2680113  26.3822753  10.3821673  30.4340113  27.3922753   9.9771673
  31.1500113  27.0782753  10.0421673  17.5840113  28.6792753  14.0211673
  17.1630113  28.1612753  13.4601673  17.2320113  29.4652753  13.8781673
  17.4700113  28.7192753  13.9171673  32.5310113  27.2292753   7.4211673
  32.2450113  27.6302753   8.1411673  33.3910113  27.1672753   7.5481673
  32.6160113  27.2792753   7.5461673  30.1930113  21.1532753  15.9611673
  29.6680113  21.6122753  16.4851673  29.8320113  20.3582753  15.9551673
  30.0620113  21.1032753  16.0371673  15.7000113  20.0012753   7.8651673
  15.7440113  20.3452753   7.0641673  16.4550113  20.2382753   8.2321673
  15.8180113  20.0872753   7.8011673  33.6620113  32.8622753   7.9501673
  33.9520113  33.1192753   7.1691673  34.3570113  32.9582753   8.4691673
  33.8080113  32.9142753   7.9111673  28.6850113  24.7222753  16.0371673
  28.7580113  24.8262753  16.9001673  28.0510113  25.2802753  15.8161673
  28.6020113  24.8202753  16.1321673  30.9530113  25.0412753  14.4021673
  31.2720113  25.8272753  14.6051673  30.5830113  24.7712753  15.1451673
  30.9460113  25.1172753  14.5421673  30.7490113  23.2992753   5.5911673
  30.0040113  22.9762753   5.9091673  30.7510113  24.1252753   5.8711673
  30.6390113  23.3732753   5.6791673  33.6510113  25.5832753  17.1371673
  33.5990113  25.2422753  16.3361673  34.3880113  26.0502753  17.1151673
  33.7520113  25.6022753  17.0151673  33.1890113  29.2592753  13.3431673
  33.8170113  28.7102753  13.0871673  33.1280113  29.8242753  12.6811673
  33.2730113  29.2622753  13.2071673  22.3230113  30.4902753  10.6391673
  22.0250113  31.0822753  11.2061673  22.3780113  30.9322753   9.8901673
  22.2870113  30.6432753  10.6121673  20.3020113  29.4402753  14.0371673
  19.4960113  29.1502753  14.2041673  20.2130113  30.3082753  14.0431673
  20.1700113  29.5252753  14.0621673  29.6610113  19.6292753  13.0521673
  30.4050113  20.0812753  12.9891673  29.0950113  20.0992753  12.5831673
  29.6880113  19.7662753  12.9741673  24.8390113  26.9132753  10.1301673
  25.3150113  27.2872753  10.7581673  24.0160113  27.0472753  10.3891673
  24.7880113  26.9882753  10.2611673  21.5490113  22.5162753  12.8711673
  21.7100113  21.7722753  13.2981673  21.5040113  22.2672753  12.0361673
  21.5660113  22.3692753  12.8111673  24.1030113  34.3062753   5.3581673
  24.6490113  34.9852753   5.4121673  23.7530113  34.3882753   4.5631673
  24.1320113  34.4192753   5.2481673  30.9460113  17.6092753  10.7221673
  30.6660113  18.4342753  10.6781673  31.6620113  17.6622753  11.2181673
  31.0110113  17.7392753  10.7891673  23.3010113  18.3242753  12.7511673
  24.0060113  18.6442753  12.3491673  23.5420113  17.5172753  12.9781673
  23.4400113  18.2522753  12.7251673  22.2860113  32.5342753   8.7471673
  21.6620113  33.1162753   8.5651673  22.5340113  32.2482753   7.9611673
  22.2300113  32.5782753   8.6041673  26.5950113  29.1682753  15.7361673
  27.3520113  29.4542753  15.4101673  26.0480113  29.2202753  15.0581673
  26.6260113  29.2182753  15.5871673  30.5040113  31.7182753  14.2401673
  30.8500113  31.9882753  14.9941673  30.7980113  32.3002753  13.6601673
  30.5990113  31.8442753  14.2661673  19.8100113  23.3772753   8.8121673
  20.2500113  23.2742753   8.0661673  20.3550113  23.0642753   9.4171673
  19.9550113  23.3162753   8.7911673  27.8260113  22.4792753  14.4041673
  27.1780113  22.9492753  14.7521673  28.3910113  22.3902753  15.0631673
  27.8140113  22.5352753  14.5531673  27.5140113  24.0162753  10.7021673
  27.8160113  24.4362753  11.4051673  27.5500113  23.1762753  10.9341673
  27.5640113  23.9542753  10.8401673  24.9390113  34.1832753  14.6271673
  25.4170113  33.5832753  14.2111673  24.5880113  33.7402753  15.2921673
  24.9580113  34.0292753  14.6641673  30.0620113  23.4632753   2.9541673
  30.2690113  23.2622753   3.7781673  30.8180113  23.7312753   2.6121673
  30.2040113  23.4732753   3.0251673  23.3570113  18.3622753   8.8591673
  22.5310113  18.2132753   9.0961673  23.3170113  18.3972753   7.9881673
  23.2290113  18.3452753   8.7651673  31.0840113  19.5462753   4.4281673
  30.3700113  19.0752753   4.5991673  30.9220113  19.8872753   3.6421673
  30.9550113  19.5272753   4.3371673  31.5270113  27.4902753   2.8081673
  32.0030113  26.7612753   2.7601673  30.7060113  27.2042753   2.7321673
  31.4760113  27.3402753   2.7891673  24.9980113  29.4022753  13.6471673
  24.2030113  29.3382753  13.9981673  25.0690113  30.2492753  13.4521673
  24.8910113  29.5172753  13.6701673  15.9220113  18.7602753  14.8941673
  15.7820113  19.5552753  14.5631673  15.1360113  18.5172753  15.1831673
  15.7850113  18.8422753  14.8881673  20.8280113  35.6092753   8.9641673
  20.8390113  35.6682753   9.8341673  20.4030113  34.8622753   8.8141673
  20.7670113  35.5072753   9.0701673  27.7430113  28.6572753   5.1631673
  27.8190113  28.9982753   5.9621673  27.9120113  27.8102753   5.2841673
  27.7790113  28.5822753   5.2991673  25.2650113  27.9312753   4.7281673
  24.9670113  27.6162753   5.4851673  25.9600113  28.4042753   4.9631673
  25.3240113  27.9542753   4.8751673  25.4870113  32.0492753  12.7551673
  26.1740113  31.9352753  13.2801673  25.6210113  32.8402753  12.4111673
  25.6080113  32.1492753  12.7821673  33.6630113  24.6582753  14.5661673
  32.8080113  24.5362753  14.6921673  33.8160113  24.2632753  13.8031673
  33.5590113  24.5812753  14.4721673  28.1760113  25.3232753  13.1421673
  27.9210113  24.6042753  13.5641673  28.9970113  25.4392753  13.4121673
  28.2600113  25.2342753  13.2441673  17.5920113  35.1072753  14.4061673
  16.9380113  34.5382753  14.5041673  17.2170113  35.8802753  14.5571673
  17.4400113  35.1372753  14.4431673  26.1100113  26.5132753  16.3291673
  26.4330113  27.1992753  15.8971673  25.4060113  26.8362753  16.7311673
  26.0530113  26.6622753  16.3241673  29.1940113  34.8872753   7.2581673
  28.7430113  35.5302753   7.6371673  29.9020113  34.8082753   7.7631673
  29.2320113  34.9702753   7.3891673  25.8950113  29.9772753  10.1881673
  25.2010113  30.3792753  10.5311673  26.5720113  30.4102753  10.5271673
  25.8920113  30.1002753  10.2891673  31.2720113  32.5702753  16.7681673
  32.0480113  32.1802753  16.8511673  30.8030113  32.2342753  17.4231673
  31.3170113  32.4632753  16.8771673  18.9630113  23.5152753  12.5351673
  19.3380113  24.1342753  12.0481673  19.6370113  23.0412753  12.8201673
  19.1180113  23.5372753  12.5051673  16.7380113  21.9632753  11.8101673
  16.8150113  21.7942753  10.9571673  17.4840113  22.3692753  12.0071673
  16.8590113  21.9982753  11.7131673  19.2920113  19.3732753  14.2211673
  19.2110113  18.5292753  14.4271673  18.9780113  19.4172753  13.4081673
  19.2340113  19.2552753  14.1311673  26.2170113  31.5682753   3.3571673
  26.0120113  32.4012753   3.1981673  25.4420113  31.1862753   3.4791673
  26.0720113  31.6352753   3.3521673  16.1350113  27.1892753  12.0341673
  16.4550113  27.4082753  11.2531673  16.0350113  26.3242753  11.9791673
  16.1670113  27.0942753  11.9111673  27.2780113  19.5492753  15.3881673
  27.3700113  20.2612753  15.8821673  26.6410113  19.1042753  15.7851673
  27.1970113  19.5882753  15.5201673  26.2720113  19.7392753   6.2421673
  25.5720113  20.2572753   6.1861673  26.3100113  19.3592753   5.4581673
  26.1740113  19.7602753   6.1181673  29.8700113  20.2552753   9.0421673
  30.7250113  20.3542753   9.1871673  29.5010113  20.8082753   9.6071673
  29.9420113  20.3522753   9.1471673  20.8980113  26.4812753  13.4191673
  20.5020113  27.2552753  13.4941673  20.4920113  26.1082753  12.7431673
  20.7800113  26.5402753  13.3301673  30.1740113  25.5352753   7.5331673
  30.8400113  26.0762753   7.6931673  29.8290113  25.8462753   6.7941673
  30.2210113  25.6612753   7.4481673  30.4870113  33.6012753   3.3401673
  30.3130113  32.9472753   3.8901673  31.2000113  33.3302753   2.9171673
  30.5670113  33.4642753   3.3591673  21.3270113  19.4582753  10.8691673
  20.4630113  19.5422753  10.9491673  21.5470113  18.9442753  11.5381673
  21.2320113  19.3952753  10.9801673  33.3450113  18.0932753  12.1981673
  33.2930113  18.0492753  13.0681673  34.0320113  17.5902753  12.0081673
  33.4390113  18.0132753  12.2981673  25.4300113  20.2062753   9.2431673
  24.6930113  19.7522753   9.3561673  26.0010113  19.8042753   9.7661673
  25.4050113  20.0792753   9.3371673  28.1620113  31.0542753  11.0311673
  28.3680113  31.3552753  11.8231673  28.1010113  31.7762753  10.5461673
  28.1830113  31.2052753  11.0761673  27.6960113  35.2682753  15.2771673
  26.9430113  35.2502753  14.8361673  27.8640113  36.1202753  15.3611673
  27.6100113  35.3912753  15.2241673  22.9330113  24.5352753  14.4471673
  22.6110113  23.9592753  13.8771673  22.5740113  25.2902753  14.2011673
  22.8330113  24.5612753  14.3271673  32.9740113  29.6932753  10.4891673
  32.9420113  28.8312753  10.3541673  32.2810113  29.9952753  10.0551673
  32.8670113  29.6102753  10.4051673  21.3680113  34.8912753  14.6951673
  21.4090113  35.0172753  15.5581673  22.0190113  34.3312753  14.5391673
  21.4700113  34.8272753  14.8001673  31.0790113  32.9532753   9.2861673
  31.6060113  32.8702753   8.5951673  30.6880113  32.1752753   9.3401673
  31.0990113  32.8262753   9.1921673  18.5470113  19.5412753  11.5171673
  18.2040113  18.7742753  11.2831673  17.8520113  20.0652753  11.5811673
  18.3940113  19.5052753  11.4921673  27.5930113  18.3972753   8.4941673
  28.2630113  18.9412753   8.6211673  27.0900113  18.8212753   7.9211673
  27.6180113  18.5402753   8.4281673  18.9610113  33.2742753  16.0551673
  19.5560113  33.7052753  16.5271673  18.5970113  33.8982753  15.5661673
  18.9950113  33.4302753  16.0521673  26.9520113  24.2052753   5.9871673
  27.5030113  23.5982753   6.2871673  26.5270113  24.4682753   6.7021673
  26.9710113  24.1542753   6.1361673  17.2000113  22.8552753   5.4731673
  16.8320113  23.1572753   6.2041673  17.7340113  22.2262753   5.7571673
  17.2240113  22.8072753   5.6231673  16.8880113  31.2632753  12.9841673
  16.3140113  31.6792753  13.4931673  17.6210113  31.7282753  13.0791673
  16.9120113  31.3932753  13.0731673  28.9220113  26.0362753   2.5491673
  28.9900113  25.1862753   2.7301673  28.0990113  26.1222753   2.2711673
  28.8100113  25.9232753   2.5351673  32.1960113  27.4092753  15.7001673
  32.8300113  27.2392753  16.2741673  32.6130113  27.8122753  15.0481673
  32.3510113  27.4442753  15.6891673  32.8210113  21.9732753  16.4381673
  32.6250113  22.6172753  16.9931673  32.0990113  21.4832753  16.4301673
  32.6860113  21.9962753  16.5191673  32.7200113  22.9142753   9.4091673
  31.8870113  23.1642753   9.3371673  32.6640113  22.0742753   9.6381673
  32.5890113  22.8272753   9.4321673  21.9800113  19.9022753  14.6031673
  22.2140113  19.3262753  13.9901673  21.1380113  19.7212753  14.7441673
  21.8900113  19.7902753  14.5331673  29.6070113  27.5202753  17.0551673
  30.4780113  27.4842753  17.0191673  29.3880113  27.9402753  16.3231673
  29.7040113  27.5762753  16.9421673  19.3610113  33.3452753   8.2361673
  19.2820113  32.5352753   7.9201673  18.9170113  33.8322753   7.6641673
  19.2840113  33.2972753   8.1051673  16.9330113  35.5892753  11.8171673
  17.4260113  35.5332753  12.5351673  17.1210113  34.8562753  11.3821673
  17.0340113  35.4722753  11.8591673  26.1800113   6.5431673  84.6601313
  25.6560113   7.1391673  85.0231313  26.5770113   6.1751673  85.3441313
  26.1610113   6.5771673  84.8151313  16.0490113  10.6831673  80.1161313
  15.6080113  10.8011673  80.8591313  15.7660113   9.9081673  79.8311313
  15.9420113  10.5861673  80.1841313  32.3240113  13.9841673  77.6311313
  33.0250113  13.4651673  77.6271313  31.7370113  13.5391673  77.1621313
  32.3410113  13.8411673  77.5611313  15.7920113   4.4751673  76.6231313
  15.0140113   4.6371673  76.2631313  15.8310113   3.6041673  76.6451313
  15.6830113   4.3701673  76.5731313  18.9310113   9.7381673  75.2951313
  18.5390113   9.3671673  74.6091313  18.8510113   9.1401673  75.9241313
  18.8610113   9.5951673  75.2861313  28.8510113   7.6101673  81.3361313
  28.9310113   7.6141673  80.4671313  28.2670113   6.9781673  81.4851313
  28.7760113   7.5171673  81.2301313  18.5580113  11.3791673  79.1951313
  19.1660113  11.2091673  79.7981313  17.8070113  11.2391673  79.6161313
  18.5370113  11.3331673  79.3461313  17.4490113  14.4701673  75.2721313
  17.9160113  14.5541673  74.5401313  17.9040113  13.8921673  75.7411313
  17.5850113  14.3971673  75.2331313  15.9890113  13.4181673  86.3711313
  16.1180113  13.1381673  87.1871313  15.3790113  12.8771673  86.0621313
  15.9180113  13.2971673  86.4461313  17.4350113   7.9391673  80.5731313
  16.9730113   7.5471673  79.9461313  18.1350113   7.4261673  80.6651313
  17.4700113   7.8061673  80.4941313  21.9430113   3.5491673  85.9201313
  22.6210113   3.5671673  85.3711313  21.8980113   2.7131673  86.1651313
  22.0360113   3.4281673  85.8751313  22.5450113  14.1351673  88.7011313
  22.6830113  14.8951673  88.2941313  23.3360113  13.7701673  88.7281313
  22.6820113  14.1941673  88.6451313  19.4360113   6.0391673  80.5961313
  20.2530113   5.8521673  80.8391313  18.9590113   5.4251673  80.9921313
  19.4860113   5.9211673  80.6911313  23.6400113  12.0201673  83.2061313
  23.9880113  11.2211673  83.2361313  24.3050113  12.5241673  82.9511313
  23.7900113  11.9761673  83.1731313  23.6970113  11.4691673  79.4171313
  24.0280113  10.8251673  79.9031313  23.9370113  11.2581673  78.6061313
  23.7810113  11.3431673  79.3691313  27.6850113   3.2011673  74.3841313
  27.2350113   3.8821673  74.6911313  27.7990113   2.6971673  75.0871313
  27.6360113   3.2271673  74.5331313  15.8910113   5.7001673  83.5861313
  15.6350113   6.5311673  83.5111313  15.2270113   5.3171673  84.0031313
  15.7550113   5.7661673  83.6371313  15.8010113  15.4101673  81.4861313
  15.2090113  15.9681673  81.1731313  16.2270113  15.1411673  80.7741313
  15.7770113  15.4521673  81.3351313  21.6410113  13.2541673  78.9661313
  21.0620113  12.9791673  79.5581313  22.2650113  12.6451673  78.9911313
  21.6480113  13.1241673  79.0571313  27.7840113  15.5421673  76.4881313
  28.5110113  16.0141673  76.5901313  28.0130113  14.7481673  76.7681313
  27.9260113  15.4951673  76.5451313  25.9520113  15.9341673  78.4781313
  26.1660113  16.4611673  79.1401313  26.7190113  15.7601673  78.0991313
  26.0970113  15.9861673  78.5201313  17.3460113  14.0801673  79.4171313
  18.0020113  13.5051673  79.4321313  17.7350113  14.8291673  79.1961313
  17.5010113  14.1051673  79.3871313  33.0790113   3.1741673  80.6791313
  32.7330113   3.8521673  81.1051313  32.4430113   2.5761673  80.6951313
  32.9340113   3.1861673  80.7441313  28.3910113  15.9441673  86.7831313
  29.1350113  16.4001673  86.7731313  28.2700113  15.7301673  85.9461313
  28.4830113  15.9801673  86.6581313  18.1640113  12.5671673  82.9171313
  18.5870113  12.2111673  82.2431313  18.4880113  12.1451673  83.6091313
  18.2740113  12.4521673  82.9201313  21.3950113  15.4191673  82.2131313
  22.2390113  15.5231673  82.0181313  21.0980113  16.2371673  82.2811313
  21.4760113  15.5551673  82.1941313  25.2020113   4.8161673  80.3001313
  25.4890113   4.5841673  79.5101313  25.9340113   4.8951673  80.7691313
  25.3520113   4.7931673  80.2531313  25.9240113   5.1551673  75.4211313
  26.2050113   5.9431673  75.6701313  25.1480113   5.3201673  75.0581313
  25.8510113   5.2961673  75.4041313  29.9650113  17.1291673  76.8881313
  30.6300113  16.9811673  76.3431313  30.3250113  17.0461673  77.6781313
  30.1170113  17.0951673  76.9241313  20.3930113  16.6381673  87.9531313
  20.6850113  16.5711673  88.7731313  19.7670113  16.0331673  87.9081313
  20.3440113  16.5391673  88.0681313  24.7830113  13.3261673  75.2371313
  24.6020113  13.8711673  75.8941313  25.5490113  13.6161673  74.9361313
  24.8690113  13.4501673  75.2901313  18.3860113  14.8001673  87.0751313
  17.6880113  14.2921673  87.2011313  18.6460113  14.5951673  86.2671313
  18.3210113  14.6951673  86.9741313  25.5480113   3.5981673  77.6051313
  25.0400113   2.9361673  77.3511313  25.6000113   4.1021673  76.8951313
  25.4810113   3.5751673  77.4631313  26.0970113  16.2931673  87.9851313
  26.8650113  16.2131673  87.5791313  25.5140113  16.1721673  87.3471313
  26.1240113  16.2631673  87.8311313  32.3740113  16.8961673  80.8861313
  31.9190113  17.6131673  81.0871313  31.7600113  16.3251673  80.6441313
  32.2160113  16.9181673  80.8801313  24.1460113   2.9061673  82.0181313
  24.2200113   3.4741673  81.3601313  24.2670113   3.3981673  82.7281313
  24.1740113   3.0631673  82.0261313  29.3710113  12.7411673  80.4301313
  30.0720113  12.2591673  80.6191313  28.7110113  12.1721673  80.4751313
  29.3770113  12.5861673  80.4641313  21.7100113   9.1621673  84.3911313
  21.8820113   8.9521673  85.2201313  21.0550113   8.6281673  84.1751313
  21.6390113   9.0521673  84.4821313  27.9380113   3.0761673  87.9061313
  27.8430113   3.3951673  88.7121313  27.3450113   2.4371673  87.8681313
  27.8360113   3.0281673  88.0201313  22.4600113   9.1001673  86.9811313
  22.5130113   9.9471673  87.1831313  22.1750113   8.7301673  87.7181313
  22.4260113   9.1701673  87.1191313  28.6370113   9.7951673  86.1111313
  28.1230113   9.3831673  86.6821313  28.5110113  10.6391673  86.2921313
  28.5430113   9.8591673  86.2221313  31.6580113   3.2561673  89.0501313
  32.4300113   3.0311673  89.3871313  31.1830113   3.4731673  89.7501313
  31.7020113   3.2551673  89.2031313  19.2020113   2.5391673  82.0201313
  19.4740113   2.1091673  81.3121313  19.0260113   1.9031673  82.5911313
  19.2160113   2.3821673  82.0001313  31.8900113  10.2341673  76.2381313
  32.0090113   9.9471673  77.0531313  32.6970113  10.2551673  75.9081313
  32.0260113  10.1951673  76.3101313  19.0260113   9.9661673  81.5691313
  19.8770113   9.8861673  81.3961313  18.6690113   9.2841673  81.1571313
  19.0990113   9.8531673  81.4821313  17.7930113  16.6911673  82.8061313
  17.1200113  16.1931673  82.5611313  18.1960113  16.8761673  82.0551313
  17.7530113  16.6451673  82.6591313  17.3430113   3.6411673  85.1021313
  18.1860113   3.8611673  85.0591313  16.9540113   4.2141673  84.5711313
  17.4100113   3.7581673  85.0171313  29.7850113   6.7711673  75.8231313
  29.5650113   7.5021673  75.4011313  29.3370113   6.8221673  76.5701313
  29.6860113   6.8861673  75.8711313  21.3940113   9.9731673  79.8041313
  22.1070113  10.4681673  79.8941313  21.6160113   9.4061673  79.1781313
  21.5320113   9.9621673  79.7251313  15.5500113  11.6161673  83.1241313
  14.8830113  12.1041673  83.4001313  16.2300113  12.1611673  83.1531313
  15.5520113  11.7681673  83.1691313  34.2950113   6.0101673  87.8321313
  34.5100113   5.2101673  87.5561313  33.4450113   6.0701673  87.6431313
  34.2010113   5.9011673  87.7631313  15.6160113   8.3001673  78.2271313
  15.4310113   7.4611673  78.3791313  16.2750113   8.2641673  77.6571313
  15.6860113   8.1711673  78.1651313  25.9170113  13.6761673  82.1311313
  25.3940113  14.3101673  81.8381313  26.2270113  13.3121673  81.4021313
  25.8850113  13.7161673  81.9801313  15.7880113  12.4641673  77.8021313
  16.3400113  13.0331673  78.1661313  15.5560113  11.9491673  78.4671313
  15.8350113  12.4721673  77.9541313  19.9920113  11.4641673  84.8911313
  20.4590113  11.7531673  85.5691313  20.5640113  10.9861673  84.4371313
  20.1460113  11.4361673  84.9241313  28.4280113   3.4781673  82.6281313
  28.7720113   3.6301673  83.4151313  27.9750113   2.7401673  82.7411313
  28.4120113   3.3911673  82.7611313  15.6180113  10.9131673  75.4301313
  16.3740113  10.4811673  75.4881313  15.6330113  11.4451673  76.1211313
  15.7320113  10.9281673  75.5411313  16.5580113   9.1341673  83.4351313
  16.9890113   9.0051673  82.6881313  16.3530113   9.9821673  83.4091313
  16.5910113   9.2401673  83.3211313  22.9040113   2.6981673  77.0851313
  22.9020113   2.5811673  76.2201313  22.7230113   3.5461673  77.1771313
  22.8770113   2.8061673  76.9711313  31.9580113  15.1251673  88.5821313
  31.2870113  15.6391673  88.8001313  32.0210113  15.2251673  87.7181313
  31.8680113  15.2161673  88.4871313  20.6420113  12.6501673  81.7171313
  20.7680113  13.4931673  81.9041313  21.3100113  12.2511673  82.1131313
  20.7600113  12.7161673  81.8031313  19.2570113   5.5301673  76.7191313
  19.1290113   5.0821673  77.4571313  18.6750113   5.1881673  76.1671313
  19.1520113   5.4131673  76.7471313  19.4240113   7.3601673  83.3181313
  18.6430113   7.3011673  82.9351313  19.4960113   6.6081673  83.7551313
  19.3190113   7.2411673  83.3261313  19.8540113   7.0971673  86.7861313
  19.8790113   6.4221673  86.2351313  19.2080113   7.5931673  86.4741313
  19.7630113   7.0701673  86.6591313  29.7490113   4.8101673  85.1821313
  29.0870113   5.1381673  85.6451313  29.9360113   5.4441673  84.6131313
  29.6790113   4.9521673  85.1661313  23.9540113  15.8741673  86.1781313
  23.6770113  15.2331673  85.6551313  23.7460113  16.6001673  85.7401313
  23.8830113  15.8871673  86.0361313  27.9420113   2.7791673  78.6931313
  28.4320113   3.4961673  78.6161313  27.1520113   3.0401673  78.4301313
  27.8980113   2.9231673  78.6431313  24.5240113   4.2491673  84.4181313
  25.0040113   4.9481673  84.6261313  24.8970113   3.6021673  84.8691313
  24.6500113   4.2571673  84.5151313  26.7130113   7.4181673  76.6921313
  26.7050113   8.1401673  76.2021313  26.0740113   7.5531673  77.2691313
  26.6180113   7.5451673  76.7051313  31.6850113  11.2881673  80.6731313
  32.0410113  10.9381673  81.3881313  31.6770113  10.6271673  80.1031313
  31.7370113  11.1381673  80.6941313  27.7300113  14.3541673  84.5171313
  27.1270113  14.0581673  83.9601313  28.2750113  14.8061673  84.0081313
  27.7210113  14.3771673  84.3591313  27.7430113  11.2051673  83.9171313
  26.9460113  11.4291673  84.1911313  28.0010113  10.6111673  84.5021313
  27.6630113  11.1501673  84.0441313  21.6350113  16.0171673  78.3651313
  21.4880113  15.2411673  78.7361313  22.3240113  15.8701673  77.8501313
  21.7150113  15.8801673  78.3441313  23.9270113  15.5331673  76.7671313
  24.5490113  15.6961673  77.3571313  23.9630113  16.2241673  76.2351313
  24.0240113  15.6591673  76.7761313  31.0030113   9.2031673  88.7631313
  31.0580113   9.3281673  87.9011313  31.7560113   9.5231673  89.0651313
  31.1220113   9.2681673  88.6801313  18.4280113   8.0671673  77.5961313
  18.7520113   7.2881673  77.3741313  19.0740113   8.4351673  78.0511313
  18.5710113   8.0061673  77.6301313  26.7340113   9.0091673  88.3631313
  26.5790113   9.6191673  88.9671313  27.2680113   8.4511673  88.7691313
  26.7900113   9.0171673  88.5121313  25.1180113   7.4091673  79.0211313
  25.1770113   8.0591673  79.6001313  24.9290113   6.7131673  79.5121313
  25.0990113   7.4021673  79.1791313  30.3440113  11.7381673  84.8901313
  29.8650113  12.0361673  84.2241313  29.9880113  10.9621673  85.0681313
  30.2210113  11.6671673  84.8181313  19.6140113   1.9261673  75.5331313
  19.1030113   1.9791673  74.8271313  20.3980113   2.1661673  75.2371313
  19.6540113   1.9691673  75.3851313  24.3410113   9.4561673  83.4521313
  23.4940113   9.2621673  83.5331313  24.6650113   9.2911673  84.2451313
  24.2630113   9.4031673  83.5811313  21.0930113  16.1861673  74.3381313
  21.5320113  15.4891673  74.6261313  21.3000113  16.8101673  74.9111313
  21.1890113  16.1751673  74.4651313  18.1890113   9.1491673  85.7681313
  18.9110113   9.6371673  85.7311313  17.9190113   9.1191673  84.9391313
  18.2560113   9.2171673  85.6401313  21.4190113   4.3201673  82.5031313
  22.2650113   4.1301673  82.6011313  21.0490113   3.5431673  82.3651313
  21.4890113   4.1771673  82.4971313  34.0360113  15.9041673  76.8301313
  34.7300113  15.4371673  76.5821313  33.4970113  15.3061673  77.1671313
  34.0590113  15.7461673  76.8431313  16.2400113   5.6581673  79.1581313
  16.7290113   5.3661673  79.8191313  16.3690113   5.0651673  78.5311313
  16.3310113   5.5271673  79.1631313  31.2750113   8.6801673  86.0091313
  31.2680113   7.9041673  86.4071313  30.4340113   8.9141673  86.0021313
  31.1500113   8.6001673  86.0671313  20.7650113   7.0921673  74.6441313
  20.1550113   6.6871673  75.1181313  20.3790113   7.2101673  73.8711313
  20.6180113   7.0491673  74.6001313  17.5840113  10.2011673  90.0461313
  17.1630113   9.6831673  89.4851313  17.2320113  10.9871673  89.9031313
  17.4700113  10.2411673  89.9421313  32.5310113   8.7511673  83.4461313
  32.2450113   9.1521673  84.1661313  33.3910113   8.6891673  83.5731313
  32.6160113   8.8011673  83.5711313  22.2200113   5.5531673  77.3541313
  22.4920113   6.3791673  77.4211313  21.3570113   5.6281673  77.2581313
  22.1330113   5.6861673  77.3491313  33.6620113  14.3841673  83.9751313
  33.9520113  14.6411673  83.1941313  34.3570113  14.4801673  84.4941313
  33.8080113  14.4361673  83.9361313  30.2670113  12.9871673  75.9571313
  30.6010113  12.1811673  75.9921313  29.5120113  12.9151673  76.3871313
  30.2050113  12.8571673  76.0261313  30.7490113   4.8211673  81.6161313
  30.0040113   4.4981673  81.9341313  30.7510113   5.6471673  81.8961313
  30.6390113   4.8951673  81.7041313  33.1890113  10.7811673  89.3681313
  33.8170113  10.2321673  89.1121313  33.1280113  11.3461673  88.7061313
  33.2730113  10.7841673  89.2321313  27.6410113  10.8621673  75.3601313
  28.3250113  10.3481673  75.1911313  27.2240113  10.9081673  74.5951313
  27.6800113  10.7931673  75.2221313  22.3230113  12.0121673  86.6641313
  22.0250113  12.6041673  87.2311313  22.3780113  12.4541673  85.9151313
  22.2870113  12.1651673  86.6371313  24.8390113   8.4351673  86.1551313
  25.3150113   8.8091673  86.7831313  24.0160113   8.5691673  86.4141313
  24.7880113   8.5101673  86.2861313  21.5490113   4.0381673  88.8961313
  21.7100113   3.2941673  89.3231313  21.5040113   3.7891673  88.0611313
  21.5660113   3.8911673  88.8361313  24.1030113  15.8281673  81.3831313
  24.6490113  16.5071673  81.4371313  23.7530113  15.9101673  80.5881313
  24.1320113  15.9411673  81.2731313  22.2860113  14.0561673  84.7721313
  21.6620113  14.6381673  84.5901313  22.5340113  13.7701673  83.9861313
  22.2300113  14.1001673  84.6291313  32.3670113   5.3861673  75.6041313
  32.7450113   6.0631673  75.2041313  31.5250113   5.6101673  75.6351313
  32.2980113   5.5191673  75.5491313  23.8800113   8.8321673  74.6871313
  23.0750113   8.6551673  74.4021313  23.8470113   9.6831673  74.8791313
  23.7560113   8.9311673  74.6741313  19.8100113   4.8991673  84.8371313
  20.2500113   4.7961673  84.0911313  20.3550113   4.5861673  85.4421313
  19.9550113   4.8381673  84.8161313  27.5140113   5.5381673  86.7271313
  27.8160113   5.9581673  87.4301313  27.5500113   4.6981673  86.9591313
  27.5640113   5.4761673  86.8651313  30.0620113   4.9851673  78.9791313
  30.2690113   4.7841673  79.8031313  30.8180113   5.2531673  78.6371313
  30.2040113   4.9951673  79.0501313  31.5270113   9.0121673  78.8331313
  32.0030113   8.2831673  78.7851313  30.7060113   8.7261673  78.7571313
  31.4760113   8.8621673  78.8141313  24.9980113  10.9241673  89.6721313
  24.2030113  10.8601673  90.0231313  25.0690113  11.7711673  89.4771313
  24.8910113  11.0391673  89.6951313  20.8280113  17.1311673  84.9891313
  20.8390113  17.1901673  85.8591313  20.4030113  16.3841673  84.8391313
  20.7670113  17.0291673  85.0951313  18.9860113   3.0261673  78.1441313
  19.1120113   2.6971673  77.3461313  18.1740113   2.7771673  78.3431313
  18.8850113   2.9411673  78.0561313  27.7430113  10.1791673  81.1881313
  27.8190113  10.5201673  81.9871313  27.9120113   9.3321673  81.3091313
  27.7790113  10.1041673  81.3241313  25.2650113   9.4531673  80.7531313
  24.9670113   9.1381673  81.5101313  25.9600113   9.9261673  80.9881313
  25.3240113   9.4761673  80.9001313  25.4870113  13.5711673  88.7801313
  26.1740113  13.4571673  89.3051313  25.6210113  14.3621673  88.4361313
  25.6080113  13.6711673  88.8071313  28.1760113   6.8451673  89.1671313
  27.9210113   6.1261673  89.5891313  28.9970113   6.9611673  89.4371313
  28.2600113   6.7561673  89.2691313  29.1940113  16.4091673  83.2831313
  28.7430113  17.0521673  83.6621313  29.9020113  16.3301673  83.7881313
  29.2320113  16.4921673  83.4141313  25.8950113  11.4991673  86.2131313
  25.2010113  11.9011673  86.5561313  26.5720113  11.9321673  86.5521313
  25.8920113  11.6221673  86.3141313  18.9630113   5.0371673  88.5601313
  19.3380113   5.6561673  88.0731313  19.6370113   4.5631673  88.8451313
  19.1180113   5.0591673  88.5301313  16.7380113   3.4851673  87.8351313
  16.8150113   3.3161673  86.9821313  17.4840113   3.8911673  88.0321313
  16.8590113   3.5201673  87.7381313  32.2970113   6.1251673  78.2751313
  32.4000113   6.0671673  77.4111313  33.0380113   5.7931673  78.5931313
  32.4220113   6.0681673  78.1941313  26.2170113  13.0901673  79.3821313
  26.0120113  13.9231673  79.2231313  25.4420113  12.7081673  79.5041313
  26.0720113  13.1571673  79.3771313  31.3990113   6.2711673  87.6311313
  31.3970113   5.4081673  87.7551313  31.4660113   6.5951673  88.4381313
  31.4090113   6.1911673  87.7681313  16.1350113   8.7111673  88.0591313
  16.4550113   8.9301673  87.2781313  16.0350113   7.8461673  88.0041313
  16.1670113   8.6161673  87.9361313  17.5910113   4.6471673  74.6771313
  16.9190113   4.6611673  75.2331313  17.6860113   3.7991673  74.4931313
  17.5060113   4.5241673  74.7321313  21.5790113  13.3521673  75.7911313
  22.0200113  13.4321673  76.5391313  20.7740113  13.1361673  76.0491313
  21.5250113  13.3321673  75.9401313  29.8700113   1.7771673  85.0671313
  30.7250113   1.8761673  85.2121313  29.5010113   2.3301673  85.6321313
  29.9420113   1.8741673  85.1721313  20.8980113   8.0031673  89.4441313
  20.5020113   8.7771673  89.5191313  20.4920113   7.6301673  88.7681313
  20.7800113   8.0621673  89.3551313  30.1740113   7.0571673  83.5581313
  30.8400113   7.5981673  83.7181313  29.8290113   7.3681673  82.8191313
  30.2210113   7.1831673  83.4731313  30.4870113  15.1231673  79.3651313
  30.3130113  14.4691673  79.9151313  31.2000113  14.8521673  78.9421313
  30.5670113  14.9861673  79.3841313  18.9080113  12.4221673  76.3921313
  18.6640113  12.1151673  77.1721313  18.8750113  11.7191673  75.8761313
  18.8670113  12.2731673  76.4311313  21.7270113  10.6671673  75.1351313
  20.9090113  10.3991673  75.2751313  21.6990113  11.5191673  75.3201313
  21.6020113  10.7541673  75.1831313  28.1620113  12.5761673  87.0561313
  28.3680113  12.8771673  87.8481313  28.1010113  13.2981673  86.5711313
  28.1830113  12.7271673  87.1011313  32.9740113  11.2151673  86.5141313
  32.9420113  10.3531673  86.3791313  32.2810113  11.5171673  86.0801313
  32.8670113  11.1321673  86.4301313  31.0790113  14.4751673  85.3111313
  31.6060113  14.3921673  84.6201313  30.6880113  13.6971673  85.3651313
  31.0990113  14.3481673  85.2171313  26.9520113   5.7271673  82.0121313
  27.5030113   5.1201673  82.3121313  26.5270113   5.9901673  82.7271313
  26.9710113   5.6761673  82.1611313  17.2000113   4.3771673  81.4981313
  16.8320113   4.6791673  82.2291313  17.7340113   3.7481673  81.7821313
  17.2240113   4.3291673  81.6481313  16.8880113  12.7851673  89.0091313
  16.3140113  13.2011673  89.5181313  17.6210113  13.2501673  89.1041313
  16.9120113  12.9151673  89.0981313  28.9220113   7.5581673  78.5741313
  28.9900113   6.7081673  78.7551313  28.0990113   7.6441673  78.2961313
  28.8100113   7.4451673  78.5601313  18.6740113  16.0521673  77.7841313
  18.5290113  16.2081673  76.9381313  19.5400113  16.1311673  77.8621313
  18.7810113  16.0871673  77.6711313  22.8410113   8.4491673  77.5121313
  22.9410113   8.5881673  76.6571313  23.6590113   8.3891673  77.8081313
  22.9760113   8.4601673  77.4291313  32.0010113  16.5131673  74.9921313
  32.6380113  16.3791673  75.5731313  31.6600113  15.7191673  74.8751313
  32.0450113  16.3761673  75.0601313  28.0760113  12.7781673  77.3141313
  27.8250113  12.6501673  78.1401313  27.7590113  12.0831673  76.8931313
  27.9920113  12.6571673  77.3741313  32.7200113   4.4361673  85.4341313
  31.8870113   4.6861673  85.3621313  32.6640113   3.5961673  85.6631313
  32.5890113   4.3491673  85.4571313  19.3610113  14.8671673  84.2611313
  19.2820113  14.0571673  83.9451313  18.9170113  15.3541673  83.6891313
  19.2840113  14.8191673  84.1301313  24.9620113  10.9861673  76.7441313
  25.6790113  10.6391673  76.3881313  24.9280113  11.7861673  76.3961313
  25.0630113  11.0531673  76.6401313  16.9330113  17.1111673  87.8421313
  17.4260113  17.0551673  88.5601313  17.1210113  16.3781673  87.4071313
  17.0340113  16.9941673  87.8841313  26.1800113   6.5431673  65.6538903
  25.6560113   7.1391673  66.0168903  26.5770113   6.1751673  66.3378903
  26.1610113   6.5771673  65.8088903  16.0490113  10.6831673  61.1098903
  15.6080113  10.8011673  61.8528903  15.7660113   9.9081673  60.8248903
  15.9420113  10.5861673  61.1778903  32.3240113  13.9841673  58.6248903
  33.0250113  13.4651673  58.6208903  31.7370113  13.5391673  58.1558903
  32.3410113  13.8411673  58.5548903  15.7920113   4.4751673  57.6168903
  15.0140113   4.6371673  57.2568903  15.8310113   3.6041673  57.6388903
  15.6830113   4.3701673  57.5668903  18.9310113   9.7381673  56.2888903
  18.5390113   9.3671673  55.6028903  18.8510113   9.1401673  56.9178903
  18.8610113   9.5951673  56.2798903  28.8510113   7.6101673  62.3298903
  28.9310113   7.6141673  61.4608903  28.2670113   6.9781673  62.4788903
  28.7760113   7.5171673  62.2238903  18.5580113  11.3791673  60.1888903
  19.1660113  11.2091673  60.7918903  17.8070113  11.2391673  60.6098903
  18.5370113  11.3331673  60.3398903  17.4490113  14.4701673  56.2658903
  17.9160113  14.5541673  55.5338903  17.9040113  13.8921673  56.7348903
  17.5850113  14.3971673  56.2268903  15.9890113  13.4181673  67.3648903
  16.1180113  13.1381673  68.1808903  15.3790113  12.8771673  67.0558903
  15.9180113  13.2971673  67.4398903  22.5630113  10.9431673  72.4318903
  22.3270113  10.9401673  73.2718903  21.8150113  10.7951673  72.0078903
  22.4170113  10.9201673  72.4928903  17.4350113   7.9391673  61.5668903
  16.9730113   7.5471673  60.9398903  18.1350113   7.4261673  61.6588903
  17.4700113   7.8061673  61.4878903  21.9430113   3.5491673  66.9138903
  22.6210113   3.5671673  66.3648903  21.8980113   2.7131673  67.1588903
  22.0360113   3.4281673  66.8688903  22.5450113  14.1351673  69.6948903
  22.6830113  14.8951673  69.2878903  23.3360113  13.7701673  69.7218903
  22.6820113  14.1941673  69.6388903  19.4360113   6.0391673  61.5898903
  20.2530113   5.8521673  61.8328903  18.9590113   5.4251673  61.9858903
  19.4860113   5.9211673  61.6848903  23.6400113  12.0201673  64.1998903
  23.9880113  11.2211673  64.2298903  24.3050113  12.5241673  63.9448903
  23.7900113  11.9761673  64.1668903  23.6970113  11.4691673  60.4108903
  24.0280113  10.8251673  60.8968903  23.9370113  11.2581673  59.5998903
  23.7810113  11.3431673  60.3628903  25.6650113   5.6001673  71.7498903
  24.8170113   5.5011673  71.5718903  25.6940113   6.3451673  72.2038903
  25.5440113   5.6961673  71.7908903  27.6850113   3.2011673  55.3778903
  27.2350113   3.8821673  55.6848903  27.7990113   2.6971673  56.0808903
  27.6360113   3.2271673  55.5268903  15.8910113   5.7001673  64.5798903
  15.6350113   6.5311673  64.5048903  15.2270113   5.3171673  64.9968903
  15.7550113   5.7661673  64.6308903  15.8010113  15.4101673  62.4798903
  15.2090113  15.9681673  62.1668903  16.2270113  15.1411673  61.7678903
  15.7770113  15.4521673  62.3288903  21.6410113  13.2541673  59.9598903
  21.0620113  12.9791673  60.5518903  22.2650113  12.6451673  59.9848903
  21.6480113  13.1241673  60.0508903  27.7840113  15.5421673  57.4818903
  28.5110113  16.0141673  57.5838903  28.0130113  14.7481673  57.7618903
  27.9260113  15.4951673  57.5388903  25.9520113  15.9341673  59.4718903
  26.1660113  16.4611673  60.1338903  26.7190113  15.7601673  59.0928903
  26.0970113  15.9861673  59.5138903  22.2260113   2.6501673  74.3688903
  22.3430113   2.1961673  73.6328903  22.5140113   3.4481673  74.1658903
  22.2860113   2.7011673  74.2298903  17.3460113  14.0801673  60.4108903
  18.0020113  13.5051673  60.4258903  17.7350113  14.8291673  60.1898903
  17.5010113  14.1051673  60.3808903  33.0790113   3.1741673  61.6728903
  32.7330113   3.8521673  62.0988903  32.4430113   2.5761673  61.6888903
  32.9340113   3.1861673  61.7378903  28.3910113  15.9441673  67.7768903
  29.1350113  16.4001673  67.7668903  28.2700113  15.7301673  66.9398903
  28.4830113  15.9801673  67.6518903  17.9590113   2.2471673  73.3528903
  17.1810113   1.8571673  73.2808903  18.4500113   1.8351673  72.7618903
  17.9160113   2.1281673  73.2548903  18.1640113  12.5671673  63.9108903
  18.5870113  12.2111673  63.2368903  18.4880113  12.1451673  64.6028903
  18.2740113  12.4521673  63.9138903  21.3950113  15.4191673  63.2068903
  22.2390113  15.5231673  63.0118903  21.0980113  16.2371673  63.2748903
  21.4760113  15.5551673  63.1878903  25.2020113   4.8161673  61.2938903
  25.4890113   4.5841673  60.5038903  25.9340113   4.8951673  61.7628903
  25.3520113   4.7931673  61.2468903  25.9240113   5.1551673  56.4148903
  26.2050113   5.9431673  56.6638903  25.1480113   5.3201673  56.0518903
  25.8510113   5.2961673  56.3978903  29.9650113  17.1291673  57.8818903
  30.6300113  16.9811673  57.3368903  30.3250113  17.0461673  58.6718903
  30.1170113  17.0951673  57.9178903  20.3930113  16.6381673  68.9468903
  20.6850113  16.5711673  69.7668903  19.7670113  16.0331673  68.9018903
  20.3440113  16.5391673  69.0618903  15.3070113   2.7951673  70.9388903
  15.3030113   3.3821673  71.5848903  15.9010113   3.1071673  70.3818903
  15.3940113   2.9281673  70.9518903  27.6450113  13.1291673  71.4808903
  27.6110113  13.5111673  72.2648903  28.4990113  13.0871673  71.3098903
  27.7660113  13.1791673  71.5718903  24.7830113  13.3261673  56.2308903
  24.6020113  13.8711673  56.8878903  25.5490113  13.6161673  55.9298903
  24.8690113  13.4501673  56.2838903  18.3860113  14.8001673  68.0688903
  17.6880113  14.2921673  68.1948903  18.6460113  14.5951673  67.2608903
  18.3210113  14.6951673  67.9678903  25.5480113   3.5981673  58.5988903
  25.0400113   2.9361673  58.3448903  25.6000113   4.1021673  57.8888903
  25.4810113   3.5751673  58.4568903  26.0970113  16.2931673  68.9788903
  26.8650113  16.2131673  68.5728903  25.5140113  16.1721673  68.3408903
  26.1240113  16.2631673  68.8248903  32.3740113  16.8961673  61.8798903
  31.9190113  17.6131673  62.0808903  31.7600113  16.3251673  61.6378903
  32.2160113  16.9181673  61.8738903  24.1460113   2.9061673  63.0118903
  24.2200113   3.4741673  62.3538903  24.2670113   3.3981673  63.7218903
  24.1740113   3.0631673  63.0198903  29.3710113  12.7411673  61.4238903
  30.0720113  12.2591673  61.6128903  28.7110113  12.1721673  61.4688903
  29.3770113  12.5861673  61.4578903  19.7470113  13.6511673  70.6358903
  20.5880113  13.7141673  70.4138903  19.7100113  14.0481673  71.4118903
  19.8660113  13.7191673  70.7178903  21.7100113   9.1621673  65.3848903
  21.8820113   8.9521673  66.2138903  21.0550113   8.6281673  65.1688903
  21.6390113   9.0521673  65.4758903  27.9380113   3.0761673  68.8998903
  27.8430113   3.3951673  69.7058903  27.3450113   2.4371673  68.8618903
  27.8360113   3.0281673  69.0138903  22.4600113   9.1001673  67.9748903
  22.5130113   9.9471673  68.1768903  22.1750113   8.7301673  68.7118903
  22.4260113   9.1701673  68.1128903  28.6370113   9.7951673  67.1048903
  28.1230113   9.3831673  67.6758903  28.5110113  10.6391673  67.2858903
  28.5430113   9.8591673  67.2158903  15.2810113  13.4711673  74.1858903
  16.0370113  13.8201673  74.4438903  15.4580113  12.6181673  74.1288903
  15.4190113  13.3961673  74.2158903  31.6580113   3.2561673  70.0438903
  32.4300113   3.0311673  70.3808903  31.1830113   3.4731673  70.7438903
  31.7020113   3.2551673  70.1968903  19.2020113   2.5391673  63.0138903
  19.4740113   2.1091673  62.3058903  19.0260113   1.9031673  63.5848903
  19.2160113   2.3821673  62.9938903  31.8900113  10.2341673  57.2318903
  32.0090113   9.9471673  58.0468903  32.6970113  10.2551673  56.9018903
  32.0260113  10.1951673  57.3038903  19.0260113   9.9661673  62.5628903
  19.8770113   9.8861673  62.3898903  18.6690113   9.2841673  62.1508903
  19.0990113   9.8531673  62.4758903  17.7930113  16.6911673  63.7998903
  17.1200113  16.1931673  63.5548903  18.1960113  16.8761673  63.0488903
  17.7530113  16.6451673  63.6528903  17.3430113   3.6411673  66.0958903
  18.1860113   3.8611673  66.0528903  16.9540113   4.2141673  65.5648903
  17.4100113   3.7581673  66.0108903  34.1240113  14.7431673  71.4858903
  33.4420113  15.0531673  71.0388903  33.7550113  14.2851673  72.1308903
  33.9680113  14.7211673  71.5148903  29.7850113   6.7711673  56.8168903
  29.5650113   7.5021673  56.3948903  29.3370113   6.8221673  57.5638903
  29.6860113   6.8861673  56.8648903  21.3940113   9.9731673  60.7978903
  22.1070113  10.4681673  60.8878903  21.6160113   9.4061673  60.1718903
  21.5320113   9.9621673  60.7188903  15.5500113  11.6161673  64.1178903
  14.8830113  12.1041673  64.3938903  16.2300113  12.1611673  64.1468903
  15.5520113  11.7681673  64.1628903  23.1970113   5.3261673  74.2138903
  22.7130113   5.9031673  74.6558903  23.1690113   5.6211673  73.3928903
  23.1210113   5.4551673  74.1578903  34.2950113   6.0101673  68.8258903
  34.5100113   5.2101673  68.5498903  33.4450113   6.0701673  68.6368903
  34.2010113   5.9011673  68.7568903  15.6160113   8.3001673  59.2208903
  15.4310113   7.4611673  59.3728903  16.2750113   8.2641673  58.6508903
  15.6860113   8.1711673  59.1588903  25.9170113  13.6761673  63.1248903
  25.3940113  14.3101673  62.8318903  26.2270113  13.3121673  62.3958903
  25.8850113  13.7161673  62.9738903  15.7880113  12.4641673  58.7958903
  16.3400113  13.0331673  59.1598903  15.5560113  11.9491673  59.4608903
  15.8350113  12.4721673  58.9478903  19.9920113  11.4641673  65.8848903
  20.4590113  11.7531673  66.5628903  20.5640113  10.9861673  65.4308903
  20.1460113  11.4361673  65.9178903  28.4280113   3.4781673  63.6218903
  28.7720113   3.6301673  64.4088903  27.9750113   2.7401673  63.7348903
  28.4120113   3.3911673  63.7548903  15.6180113  10.9131673  56.4238903
  16.3740113  10.4811673  56.4818903  15.6330113  11.4451673  57.1148903
  15.7320113  10.9281673  56.5348903  16.5580113   9.1341673  64.4288903
  16.9890113   9.0051673  63.6818903  16.3530113   9.9821673  64.4028903
  16.5910113   9.2401673  64.3148903  22.9040113   2.6981673  58.0788903
  22.9020113   2.5811673  57.2138903  22.7230113   3.5461673  58.1708903
  22.8770113   2.8061673  57.9648903  31.9580113  15.1251673  69.5758903
  31.2870113  15.6391673  69.7938903  32.0210113  15.2251673  68.7118903
  31.8680113  15.2161673  69.4808903  20.6420113  12.6501673  62.7108903
  20.7680113  13.4931673  62.8978903  21.3100113  12.2511673  63.1068903
  20.7600113  12.7161673  62.7968903  18.7720113   6.1331673  72.5728903
  18.2360113   5.6271673  73.0408903  18.7920113   5.7431673  71.7928903
  18.6950113   6.0001673  72.5268903  19.2570113   5.5301673  57.7128903
  19.1290113   5.0821673  58.4508903  18.6750113   5.1881673  57.1608903
  19.1520113   5.4131673  57.7408903  19.4240113   7.3601673  64.3118903
  18.6430113   7.3011673  63.9288903  19.4960113   6.6081673  64.7488903
  19.3190113   7.2411673  64.3198903  19.8540113   7.0971673  67.7798903
  19.8790113   6.4221673  67.2288903  19.2080113   7.5931673  67.4678903
  19.7630113   7.0701673  67.6528903  29.7490113   4.8101673  66.1758903
  29.0870113   5.1381673  66.6388903  29.9360113   5.4441673  65.6068903
  29.6790113   4.9521673  66.1598903  23.9540113  15.8741673  67.1718903
  23.6770113  15.2331673  66.6488903  23.7460113  16.6001673  66.7338903
  23.8830113  15.8871673  67.0298903  27.9420113   2.7791673  59.6868903
  28.4320113   3.4961673  59.6098903  27.1520113   3.0401673  59.4238903
  27.8980113   2.9231673  59.6368903  17.6530113   8.4521673  73.3388903
  17.6160113   8.9531673  72.6248903  17.9840113   7.7001673  73.0438903
  17.6960113   8.4141673  73.1898903  29.2560113  10.6571673  71.5968903
  29.7400113  11.3751673  71.6948903  29.6500113  10.2301673  70.9458903
  29.3860113  10.7001673  71.5148903  23.5520113  13.5021673  72.7738903
  23.9060113  13.3241673  73.5508903  23.1160113  12.7731673  72.5748903
  23.5400113  13.3681673  72.8598903  24.5240113   4.2491673  65.4118903
  25.0040113   4.9481673  65.6198903  24.8970113   3.6021673  65.8628903
  24.6500113   4.2571673  65.5088903  26.7130113   7.4181673  57.6858903
  26.7050113   8.1401673  57.1958903  26.0740113   7.5531673  58.2628903
  26.6180113   7.5451673  57.6988903  31.6850113  11.2881673  61.6668903
  32.0410113  10.9381673  62.3818903  31.6770113  10.6271673  61.0968903
  31.7370113  11.1381673  61.6878903  27.7300113  14.3541673  65.5108903
  27.1270113  14.0581673  64.9538903  28.2750113  14.8061673  65.0018903
  27.7210113  14.3771673  65.3528903  27.7430113  11.2051673  64.9108903
  26.9460113  11.4291673  65.1848903  28.0010113  10.6111673  65.4958903
  27.6630113  11.1501673  65.0378903  21.6350113  16.0171673  59.3588903
  21.4880113  15.2411673  59.7298903  22.3240113  15.8701673  58.8438903
  21.7150113  15.8801673  59.3378903  23.9270113  15.5331673  57.7608903
  24.5490113  15.6961673  58.3508903  23.9630113  16.2241673  57.2288903
  24.0240113  15.6591673  57.7698903  31.0030113   9.2031673  69.7568903
  31.0580113   9.3281673  68.8948903  31.7560113   9.5231673  70.0588903
  31.1220113   9.2681673  69.6738903  27.1940113  14.5521673  74.0338903
  27.3580113  14.8351673  74.8428903  27.4570113  15.2131673  73.5288903
  27.2570113  14.6921673  74.0788903  18.4280113   8.0671673  58.5898903
  18.7520113   7.2881673  58.3678903  19.0740113   8.4351673  59.0448903
  18.5710113   8.0061673  58.6238903  26.7340113   9.0091673  69.3568903
  26.5790113   9.6191673  69.9608903  27.2680113   8.4511673  69.7628903
  26.7900113   9.0171673  69.5058903  25.1180113   7.4091673  60.0148903
  25.1770113   8.0591673  60.5938903  24.9290113   6.7131673  60.5058903
  25.0990113   7.4021673  60.1728903  30.3440113  11.7381673  65.8838903
  29.8650113  12.0361673  65.2178903  29.9880113  10.9621673  66.0618903
  30.2210113  11.6671673  65.8118903  19.6140113   1.9261673  56.5268903
  19.1030113   1.9791673  55.8208903  20.3980113   2.1661673  56.2308903
  19.6540113   1.9691673  56.3788903  24.3410113   9.4561673  64.4458903
  23.4940113   9.2621673  64.5268903  24.6650113   9.2911673  65.2388903
  24.2630113   9.4031673  64.5748903  21.0930113  16.1861673  55.3318903
  21.5320113  15.4891673  55.6198903  21.3000113  16.8101673  55.9048903
  21.1890113  16.1751673  55.4588903  18.1890113   9.1491673  66.7618903
  18.9110113   9.6371673  66.7248903  17.9190113   9.1191673  65.9328903
  18.2560113   9.2171673  66.6338903  21.4190113   4.3201673  63.4968903
  22.2650113   4.1301673  63.5948903  21.0490113   3.5431673  63.3588903
  21.4890113   4.1771673  63.4908903  34.0360113  15.9041673  57.8238903
  34.7300113  15.4371673  57.5758903  33.4970113  15.3061673  58.1608903
  34.0590113  15.7461673  57.8368903  16.2400113   5.6581673  60.1518903
  16.7290113   5.3661673  60.8128903  16.3690113   5.0651673  59.5248903
  16.3310113   5.5271673  60.1568903  31.2750113   8.6801673  67.0028903
  31.2680113   7.9041673  67.4008903  30.4340113   8.9141673  66.9958903
  31.1500113   8.6001673  67.0608903  20.7650113   7.0921673  55.6378903
  20.1550113   6.6871673  56.1118903  20.3790113   7.2101673  54.8648903
  20.6180113   7.0491673  55.5938903  17.5840113  10.2011673  71.0398903
  17.1630113   9.6831673  70.4788903  17.2320113  10.9871673  70.8968903
  17.4700113  10.2411673  70.9358903  32.5310113   8.7511673  64.4398903
  32.2450113   9.1521673  65.1598903  33.3910113   8.6891673  64.5668903
  32.6160113   8.8011673  64.5648903  22.2200113   5.5531673  58.3478903
  22.4920113   6.3791673  58.4148903  21.3570113   5.6281673  58.2518903
  22.1330113   5.6861673  58.3428903  30.1930113   2.6751673  72.9798903
  29.6680113   3.1341673  73.5038903  29.8320113   1.8801673  72.9738903
  30.0620113   2.6251673  73.0558903  28.6850113   6.2441673  73.0558903
  28.7580113   6.3481673  73.9188903  28.0510113   6.8021673  72.8348903
  28.6020113   6.3421673  73.1508903  30.9530113   6.5631673  71.4208903
  31.2720113   7.3491673  71.6238903  30.5830113   6.2931673  72.1638903
  30.9460113   6.6391673  71.5608903  30.2670113  12.9871673  56.9508903
  30.6010113  12.1811673  56.9858903  29.5120113  12.9151673  57.3808903
  30.2050113  12.8571673  57.0198903  30.7490113   4.8211673  62.6098903
  30.0040113   4.4981673  62.9278903  30.7510113   5.6471673  62.8898903
  30.6390113   4.8951673  62.6978903  33.6510113   7.1051673  74.1558903
  33.5990113   6.7641673  73.3548903  34.3880113   7.5721673  74.1338903
  33.7520113   7.1241673  74.0338903  33.1890113  10.7811673  70.3618903
  33.8170113  10.2321673  70.1058903  33.1280113  11.3461673  69.6998903
  33.2730113  10.7841673  70.2258903  27.6410113  10.8621673  56.3538903
  28.3250113  10.3481673  56.1848903  27.2240113  10.9081673  55.5888903
  27.6800113  10.7931673  56.2158903  22.3230113  12.0121673  67.6578903
  22.0250113  12.6041673  68.2248903  22.3780113  12.4541673  66.9088903
  22.2870113  12.1651673  67.6308903  20.3020113  10.9621673  71.0558903
  19.4960113  10.6721673  71.2228903  20.2130113  11.8301673  71.0618903
  20.1700113  11.0471673  71.0808903  24.8390113   8.4351673  67.1488903
  25.3150113   8.8091673  67.7768903  24.0160113   8.5691673  67.4078903
  24.7880113   8.5101673  67.2798903  21.5490113   4.0381673  69.8898903
  21.7100113   3.2941673  70.3168903  21.5040113   3.7891673  69.0548903
  21.5660113   3.8911673  69.8298903  24.1030113  15.8281673  62.3768903
  24.6490113  16.5071673  62.4308903  23.7530113  15.9101673  61.5818903
  24.1320113  15.9411673  62.2668903  22.2860113  14.0561673  65.7658903
  21.6620113  14.6381673  65.5838903  22.5340113  13.7701673  64.9798903
  22.2300113  14.1001673  65.6228903  26.5950113  10.6901673  72.7548903
  27.3520113  10.9761673  72.4288903  26.0480113  10.7421673  72.0768903
  26.6260113  10.7401673  72.6058903  30.5040113  13.2401673  71.2588903
  30.8500113  13.5101673  72.0128903  30.7980113  13.8221673  70.6788903
  30.5990113  13.3661673  71.2848903  32.3670113   5.3861673  56.5978903
  32.7450113   6.0631673  56.1978903  31.5250113   5.6101673  56.6288903
  32.2980113   5.5191673  56.5428903  23.8800113   8.8321673  55.6808903
  23.0750113   8.6551673  55.3958903  23.8470113   9.6831673  55.8728903
  23.7560113   8.9311673  55.6678903  19.8100113   4.8991673  65.8308903
  20.2500113   4.7961673  65.0848903  20.3550113   4.5861673  66.4358903
  19.9550113   4.8381673  65.8098903  27.8260113   4.0011673  71.4228903
  27.1780113   4.4711673  71.7708903  28.3910113   3.9121673  72.0818903
  27.8140113   4.0571673  71.5718903  27.5140113   5.5381673  67.7208903
  27.8160113   5.9581673  68.4238903  27.5500113   4.6981673  67.9528903
  27.5640113   5.4761673  67.8588903  24.9390113  15.7051673  71.6458903
  25.4170113  15.1051673  71.2298903  24.5880113  15.2621673  72.3108903
  24.9580113  15.5511673  71.6828903  30.0620113   4.9851673  59.9728903
  30.2690113   4.7841673  60.7968903  30.8180113   5.2531673  59.6308903
  30.2040113   4.9951673  60.0438903  31.5270113   9.0121673  59.8268903
  32.0030113   8.2831673  59.7788903  30.7060113   8.7261673  59.7508903
  31.4760113   8.8621673  59.8078903  24.9980113  10.9241673  70.6658903
  24.2030113  10.8601673  71.0168903  25.0690113  11.7711673  70.4708903
  24.8910113  11.0391673  70.6888903  20.8280113  17.1311673  65.9828903
  20.8390113  17.1901673  66.8528903  20.4030113  16.3841673  65.8328903
  20.7670113  17.0291673  66.0888903  18.9860113   3.0261673  59.1378903
  19.1120113   2.6971673  58.3398903  18.1740113   2.7771673  59.3368903
  18.8850113   2.9411673  59.0498903  27.7430113  10.1791673  62.1818903
  27.8190113  10.5201673  62.9808903  27.9120113   9.3321673  62.3028903
  27.7790113  10.1041673  62.3178903  25.2650113   9.4531673  61.7468903
  24.9670113   9.1381673  62.5038903  25.9600113   9.9261673  61.9818903
  25.3240113   9.4761673  61.8938903  25.4870113  13.5711673  69.7738903
  26.1740113  13.4571673  70.2988903  25.6210113  14.3621673  69.4298903
  25.6080113  13.6711673  69.8008903  33.6630113   6.1801673  71.5848903
  32.8080113   6.0581673  71.7108903  33.8160113   5.7851673  70.8218903
  33.5590113   6.1031673  71.4908903  28.1760113   6.8451673  70.1608903
  27.9210113   6.1261673  70.5828903  28.9970113   6.9611673  70.4308903
  28.2600113   6.7561673  70.2628903  17.5920113  16.6291673  71.4248903
  16.9380113  16.0601673  71.5228903  17.2170113  17.4021673  71.5758903
  17.4400113  16.6591673  71.4618903  26.1100113   8.0351673  73.3478903
  26.4330113   8.7211673  72.9158903  25.4060113   8.3581673  73.7498903
  26.0530113   8.1841673  73.3428903  29.1940113  16.4091673  64.2768903
  28.7430113  17.0521673  64.6558903  29.9020113  16.3301673  64.7818903
  29.2320113  16.4921673  64.4078903  25.8950113  11.4991673  67.2068903
  25.2010113  11.9011673  67.5498903  26.5720113  11.9321673  67.5458903
  25.8920113  11.6221673  67.3078903  31.2720113  14.0921673  73.7868903
  32.0480113  13.7021673  73.8698903  30.8030113  13.7561673  74.4418903
  31.3170113  13.9851673  73.8958903  18.9630113   5.0371673  69.5538903
  19.3380113   5.6561673  69.0668903  19.6370113   4.5631673  69.8388903
  19.1180113   5.0591673  69.5238903  16.7380113   3.4851673  68.8288903
  16.8150113   3.3161673  67.9758903  17.4840113   3.8911673  69.0258903
  16.8590113   3.5201673  68.7318903  32.2970113   6.1251673  59.2688903
  32.4000113   6.0671673  58.4048903  33.0380113   5.7931673  59.5868903
  32.4220113   6.0681673  59.1878903  26.2170113  13.0901673  60.3758903
  26.0120113  13.9231673  60.2168903  25.4420113  12.7081673  60.4978903
  26.0720113  13.1571673  60.3708903  31.3990113   6.2711673  68.6248903
  31.3970113   5.4081673  68.7488903  31.4660113   6.5951673  69.4318903
  31.4090113   6.1911673  68.7618903  16.1350113   8.7111673  69.0528903
  16.4550113   8.9301673  68.2718903  16.0350113   7.8461673  68.9978903
  16.1670113   8.6161673  68.9298903  17.5910113   4.6471673  55.6708903
  16.9190113   4.6611673  56.2268903  17.6860113   3.7991673  55.4868903
  17.5060113   4.5241673  55.7258903  21.5790113  13.3521673  56.7848903
  22.0200113  13.4321673  57.5328903  20.7740113  13.1361673  57.0428903
  21.5250113  13.3321673  56.9338903  29.8700113   1.7771673  66.0608903
  30.7250113   1.8761673  66.2058903  29.5010113   2.3301673  66.6258903
  29.9420113   1.8741673  66.1658903  20.8980113   8.0031673  70.4378903
  20.5020113   8.7771673  70.5128903  20.4920113   7.6301673  69.7618903
  20.7800113   8.0621673  70.3488903  30.1740113   7.0571673  64.5518903
  30.8400113   7.5981673  64.7118903  29.8290113   7.3681673  63.8128903
  30.2210113   7.1831673  64.4668903  30.4870113  15.1231673  60.3588903
  30.3130113  14.4691673  60.9088903  31.2000113  14.8521673  59.9358903
  30.5670113  14.9861673  60.3778903  18.9080113  12.4221673  57.3858903
  18.6640113  12.1151673  58.1658903  18.8750113  11.7191673  56.8698903
  18.8670113  12.2731673  57.4248903  21.7270113  10.6671673  56.1288903
  20.9090113  10.3991673  56.2688903  21.6990113  11.5191673  56.3138903
  21.6020113  10.7541673  56.1768903  28.1620113  12.5761673  68.0498903
  28.3680113  12.8771673  68.8418903  28.1010113  13.2981673  67.5648903
  28.1830113  12.7271673  68.0948903  27.6960113  16.7901673  72.2958903
  26.9430113  16.7721673  71.8548903  27.8640113  17.6421673  72.3798903
  27.6100113  16.9131673  72.2428903  22.9330113   6.0571673  71.4658903
  22.6110113   5.4811673  70.8958903  22.5740113   6.8121673  71.2198903
  22.8330113   6.0831673  71.3458903  32.9740113  11.2151673  67.5078903
  32.9420113  10.3531673  67.3728903  32.2810113  11.5171673  67.0738903
  32.8670113  11.1321673  67.4238903  21.3680113  16.4131673  71.7138903
  21.4090113  16.5391673  72.5768903  22.0190113  15.8531673  71.5578903
  21.4700113  16.3491673  71.8188903  31.0790113  14.4751673  66.3048903
  31.6060113  14.3921673  65.6138903  30.6880113  13.6971673  66.3588903
  31.0990113  14.3481673  66.2108903  18.9610113  14.7961673  73.0738903
  19.5560113  15.2271673  73.5458903  18.5970113  15.4201673  72.5848903
  18.9950113  14.9521673  73.0708903  26.9520113   5.7271673  63.0058903
  27.5030113   5.1201673  63.3058903  26.5270113   5.9901673  63.7208903
  26.9710113   5.6761673  63.1548903  17.2000113   4.3771673  62.4918903
  16.8320113   4.6791673  63.2228903  17.7340113   3.7481673  62.7758903
  17.2240113   4.3291673  62.6418903  16.8880113  12.7851673  70.0028903
  16.3140113  13.2011673  70.5118903  17.6210113  13.2501673  70.0978903
  16.9120113  12.9151673  70.0918903  28.9220113   7.5581673  59.5678903
  28.9900113   6.7081673  59.7488903  28.0990113   7.6441673  59.2898903
  28.8100113   7.4451673  59.5538903  18.6740113  16.0521673  58.7778903
  18.5290113  16.2081673  57.9318903  19.5400113  16.1311673  58.8558903
  18.7810113  16.0871673  58.6648903  22.8410113   8.4491673  58.5058903
  22.9410113   8.5881673  57.6508903  23.6590113   8.3891673  58.8018903
  22.9760113   8.4601673  58.4228903  32.0010113  16.5131673  55.9858903
  32.6380113  16.3791673  56.5668903  31.6600113  15.7191673  55.8688903
  32.0450113  16.3761673  56.0538903  32.1960113   8.9311673  72.7188903
  32.8300113   8.7611673  73.2928903  32.6130113   9.3341673  72.0668903
  32.3510113   8.9661673  72.7078903  28.0760113  12.7781673  58.3078903
  27.8250113  12.6501673  59.1338903  27.7590113  12.0831673  57.8868903
  27.9920113  12.6571673  58.3678903  32.8210113   3.4951673  73.4568903
  32.6250113   4.1391673  74.0118903  32.0990113   3.0051673  73.4488903
  32.6860113   3.5181673  73.5378903  32.7200113   4.4361673  66.4278903
  31.8870113   4.6861673  66.3558903  32.6640113   3.5961673  66.6568903
  32.5890113   4.3491673  66.4508903  29.6070113   9.0421673  74.0738903
  30.4780113   9.0061673  74.0378903  29.3880113   9.4621673  73.3418903
  29.7040113   9.0981673  73.9608903  19.3610113  14.8671673  65.2548903
  19.2820113  14.0571673  64.9388903  18.9170113  15.3541673  64.6828903
  19.2840113  14.8191673  65.1238903  24.9620113  10.9861673  57.7378903
  25.6790113  10.6391673  57.3818903  24.9280113  11.7861673  57.3898903
  25.0630113  11.0531673  57.6338903  16.9330113  17.1111673  68.8358903
  17.4260113  17.0551673  69.5538903  17.1210113  16.3781673  68.4008903
  17.0340113  16.9941673  68.8778903  26.1800113   6.5431673  46.6476493
  25.6560113   7.1391673  47.0106493  26.5770113   6.1751673  47.3316493
  26.1610113   6.5771673  46.8026493  16.0490113  10.6831673  42.1036493
  15.6080113  10.8011673  42.8466493  15.7660113   9.9081673  41.8186493
  15.9420113  10.5861673  42.1716493  32.3240113  13.9841673  39.6186493
  33.0250113  13.4651673  39.6146493  31.7370113  13.5391673  39.1496493
  32.3410113  13.8411673  39.5486493  15.7920113   4.4751673  38.6106493
  15.0140113   4.6371673  38.2506493  15.8310113   3.6041673  38.6326493
  15.6830113   4.3701673  38.5606493  18.9310113   9.7381673  37.2826493
  18.5390113   9.3671673  36.5966493  18.8510113   9.1401673  37.9116493
  18.8610113   9.5951673  37.2736493  28.8510113   7.6101673  43.3236493
  28.9310113   7.6141673  42.4546493  28.2670113   6.9781673  43.4726493
  28.7760113   7.5171673  43.2176493  18.5580113  11.3791673  41.1826493
  19.1660113  11.2091673  41.7856493  17.8070113  11.2391673  41.6036493
  18.5370113  11.3331673  41.3336493  17.4490113  14.4701673  37.2596493
  17.9160113  14.5541673  36.5276493  17.9040113  13.8921673  37.7286493
  17.5850113  14.3971673  37.2206493  15.9890113  13.4181673  48.3586493
  16.1180113  13.1381673  49.1746493  15.3790113  12.8771673  48.0496493
  15.9180113  13.2971673  48.4336493  22.5630113  10.9431673  53.4256493
  22.3270113  10.9401673  54.2656493  21.8150113  10.7951673  53.0016493
  22.4170113  10.9201673  53.4866493  17.4350113   7.9391673  42.5606493
  16.9730113   7.5471673  41.9336493  18.1350113   7.4261673  42.6526493
  17.4700113   7.8061673  42.4816493  21.9430113   3.5491673  47.9076493
  22.6210113   3.5671673  47.3586493  21.8980113   2.7131673  48.1526493
  22.0360113   3.4281673  47.8626493  22.5450113  14.1351673  50.6886493
  22.6830113  14.8951673  50.2816493  23.3360113  13.7701673  50.7156493
  22.6820113  14.1941673  50.6326493  19.4360113   6.0391673  42.5836493
  20.2530113   5.8521673  42.8266493  18.9590113   5.4251673  42.9796493
  19.4860113   5.9211673  42.6786493  23.6400113  12.0201673  45.1936493
  23.9880113  11.2211673  45.2236493  24.3050113  12.5241673  44.9386493
  23.7900113  11.9761673  45.1606493  23.6970113  11.4691673  41.4046493
  24.0280113  10.8251673  41.8906493  23.9370113  11.2581673  40.5936493
  23.7810113  11.3431673  41.3566493  25.6650113   5.6001673  52.7436493
  24.8170113   5.5011673  52.5656493  25.6940113   6.3451673  53.1976493
  25.5440113   5.6961673  52.7846493  27.6850113   3.2011673  36.3716493
  27.2350113   3.8821673  36.6786493  27.7990113   2.6971673  37.0746493
  27.6360113   3.2271673  36.5206493  15.8910113   5.7001673  45.5736493
  15.6350113   6.5311673  45.4986493  15.2270113   5.3171673  45.9906493
  15.7550113   5.7661673  45.6246493  15.8010113  15.4101673  43.4736493
  15.2090113  15.9681673  43.1606493  16.2270113  15.1411673  42.7616493
  15.7770113  15.4521673  43.3226493  21.6410113  13.2541673  40.9536493
  21.0620113  12.9791673  41.5456493  22.2650113  12.6451673  40.9786493
  21.6480113  13.1241673  41.0446493  27.7840113  15.5421673  38.4756493
  28.5110113  16.0141673  38.5776493  28.0130113  14.7481673  38.7556493
  27.9260113  15.4951673  38.5326493  25.9520113  15.9341673  40.4656493
  26.1660113  16.4611673  41.1276493  26.7190113  15.7601673  40.0866493
  26.0970113  15.9861673  40.5076493  22.2260113   2.6501673  55.3626493
  22.3430113   2.1961673  54.6266493  22.5140113   3.4481673  55.1596493
  22.2860113   2.7011673  55.2236493  17.3460113  14.0801673  41.4046493
  18.0020113  13.5051673  41.4196493  17.7350113  14.8291673  41.1836493
  17.5010113  14.1051673  41.3746493  33.0790113   3.1741673  42.6666493
  32.7330113   3.8521673  43.0926493  32.4430113   2.5761673  42.6826493
  32.9340113   3.1861673  42.7316493  28.3910113  15.9441673  48.7706493
  29.1350113  16.4001673  48.7606493  28.2700113  15.7301673  47.9336493
  28.4830113  15.9801673  48.6456493  17.9590113   2.2471673  54.3466493
  17.1810113   1.8571673  54.2746493  18.4500113   1.8351673  53.7556493
  17.9160113   2.1281673  54.2486493  18.1640113  12.5671673  44.9046493
  18.5870113  12.2111673  44.2306493  18.4880113  12.1451673  45.5966493
  18.2740113  12.4521673  44.9076493  21.3950113  15.4191673  44.2006493
  22.2390113  15.5231673  44.0056493  21.0980113  16.2371673  44.2686493
  21.4760113  15.5551673  44.1816493  25.2020113   4.8161673  42.2876493
  25.4890113   4.5841673  41.4976493  25.9340113   4.8951673  42.7566493
  25.3520113   4.7931673  42.2406493  25.9240113   5.1551673  37.4086493
  26.2050113   5.9431673  37.6576493  25.1480113   5.3201673  37.0456493
  25.8510113   5.2961673  37.3916493  29.9650113  17.1291673  38.8756493
  30.6300113  16.9811673  38.3306493  30.3250113  17.0461673  39.6656493
  30.1170113  17.0951673  38.9116493  20.3930113  16.6381673  49.9406493
  20.6850113  16.5711673  50.7606493  19.7670113  16.0331673  49.8956493
  20.3440113  16.5391673  50.0556493  15.3070113   2.7951673  51.9326493
  15.3030113   3.3821673  52.5786493  15.9010113   3.1071673  51.3756493
  15.3940113   2.9281673  51.9456493  27.6450113  13.1291673  52.4746493
  27.6110113  13.5111673  53.2586493  28.4990113  13.0871673  52.3036493
  27.7660113  13.1791673  52.5656493  24.7830113  13.3261673  37.2246493
  24.6020113  13.8711673  37.8816493  25.5490113  13.6161673  36.9236493
  24.8690113  13.4501673  37.2776493  18.3860113  14.8001673  49.0626493
  17.6880113  14.2921673  49.1886493  18.6460113  14.5951673  48.2546493
  18.3210113  14.6951673  48.9616493  25.5480113   3.5981673  39.5926493
  25.0400113   2.9361673  39.3386493  25.6000113   4.1021673  38.8826493
  25.4810113   3.5751673  39.4506493  26.0970113  16.2931673  49.9726493
  26.8650113  16.2131673  49.5666493  25.5140113  16.1721673  49.3346493
  26.1240113  16.2631673  49.8186493  32.3740113  16.8961673  42.8736493
  31.9190113  17.6131673  43.0746493  31.7600113  16.3251673  42.6316493
  32.2160113  16.9181673  42.8676493  24.1460113   2.9061673  44.0056493
  24.2200113   3.4741673  43.3476493  24.2670113   3.3981673  44.7156493
  24.1740113   3.0631673  44.0136493  29.3710113  12.7411673  42.4176493
  30.0720113  12.2591673  42.6066493  28.7110113  12.1721673  42.4626493
  29.3770113  12.5861673  42.4516493  19.7470113  13.6511673  51.6296493
  20.5880113  13.7141673  51.4076493  19.7100113  14.0481673  52.4056493
  19.8660113  13.7191673  51.7116493  21.7100113   9.1621673  46.3786493
  21.8820113   8.9521673  47.2076493  21.0550113   8.6281673  46.1626493
  21.6390113   9.0521673  46.4696493  27.9380113   3.0761673  49.8936493
  27.8430113   3.3951673  50.6996493  27.3450113   2.4371673  49.8556493
  27.8360113   3.0281673  50.0076493  22.4600113   9.1001673  48.9686493
  22.5130113   9.9471673  49.1706493  22.1750113   8.7301673  49.7056493
  22.4260113   9.1701673  49.1066493  28.6370113   9.7951673  48.0986493
  28.1230113   9.3831673  48.6696493  28.5110113  10.6391673  48.2796493
  28.5430113   9.8591673  48.2096493  15.2810113  13.4711673  55.1796493
  16.0370113  13.8201673  55.4376493  15.4580113  12.6181673  55.1226493
  15.4190113  13.3961673  55.2096493  31.6580113   3.2561673  51.0376493
  32.4300113   3.0311673  51.3746493  31.1830113   3.4731673  51.7376493
  31.7020113   3.2551673  51.1906493  19.2020113   2.5391673  44.0076493
  19.4740113   2.1091673  43.2996493  19.0260113   1.9031673  44.5786493
  19.2160113   2.3821673  43.9876493  31.8900113  10.2341673  38.2256493
  32.0090113   9.9471673  39.0406493  32.6970113  10.2551673  37.8956493
  32.0260113  10.1951673  38.2976493  19.0260113   9.9661673  43.5566493
  19.8770113   9.8861673  43.3836493  18.6690113   9.2841673  43.1446493
  19.0990113   9.8531673  43.4696493  17.7930113  16.6911673  44.7936493
  17.1200113  16.1931673  44.5486493  18.1960113  16.8761673  44.0426493
  17.7530113  16.6451673  44.6466493  17.3430113   3.6411673  47.0896493
  18.1860113   3.8611673  47.0466493  16.9540113   4.2141673  46.5586493
  17.4100113   3.7581673  47.0046493  34.1240113  14.7431673  52.4796493
  33.4420113  15.0531673  52.0326493  33.7550113  14.2851673  53.1246493
  33.9680113  14.7211673  52.5086493  29.7850113   6.7711673  37.8106493
  29.5650113   7.5021673  37.3886493  29.3370113   6.8221673  38.5576493
  29.6860113   6.8861673  37.8586493  21.3940113   9.9731673  41.7916493
  22.1070113  10.4681673  41.8816493  21.6160113   9.4061673  41.1656493
  21.5320113   9.9621673  41.7126493  15.5500113  11.6161673  45.1116493
  14.8830113  12.1041673  45.3876493  16.2300113  12.1611673  45.1406493
  15.5520113  11.7681673  45.1566493  23.1970113   5.3261673  55.2076493
  22.7130113   5.9031673  55.6496493  23.1690113   5.6211673  54.3866493
  23.1210113   5.4551673  55.1516493  34.2950113   6.0101673  49.8196493
  34.5100113   5.2101673  49.5436493  33.4450113   6.0701673  49.6306493
  34.2010113   5.9011673  49.7506493  15.6160113   8.3001673  40.2146493
  15.4310113   7.4611673  40.3666493  16.2750113   8.2641673  39.6446493
  15.6860113   8.1711673  40.1526493  25.9170113  13.6761673  44.1186493
  25.3940113  14.3101673  43.8256493  26.2270113  13.3121673  43.3896493
  25.8850113  13.7161673  43.9676493  15.7880113  12.4641673  39.7896493
  16.3400113  13.0331673  40.1536493  15.5560113  11.9491673  40.4546493
  15.8350113  12.4721673  39.9416493  19.9920113  11.4641673  46.8786493
  20.4590113  11.7531673  47.5566493  20.5640113  10.9861673  46.4246493
  20.1460113  11.4361673  46.9116493  28.4280113   3.4781673  44.6156493
  28.7720113   3.6301673  45.4026493  27.9750113   2.7401673  44.7286493
  28.4120113   3.3911673  44.7486493  15.6180113  10.9131673  37.4176493
  16.3740113  10.4811673  37.4756493  15.6330113  11.4451673  38.1086493
  15.7320113  10.9281673  37.5286493  16.5580113   9.1341673  45.4226493
  16.9890113   9.0051673  44.6756493  16.3530113   9.9821673  45.3966493
  16.5910113   9.2401673  45.3086493  22.9040113   2.6981673  39.0726493
  22.9020113   2.5811673  38.2076493  22.7230113   3.5461673  39.1646493
  22.8770113   2.8061673  38.9586493  31.9580113  15.1251673  50.5696493
  31.2870113  15.6391673  50.7876493  32.0210113  15.2251673  49.7056493
  31.8680113  15.2161673  50.4746493  20.6420113  12.6501673  43.7046493
  20.7680113  13.4931673  43.8916493  21.3100113  12.2511673  44.1006493
  20.7600113  12.7161673  43.7906493  18.7720113   6.1331673  53.5666493
  18.2360113   5.6271673  54.0346493  18.7920113   5.7431673  52.7866493
  18.6950113   6.0001673  53.5206493  19.2570113   5.5301673  38.7066493
  19.1290113   5.0821673  39.4446493  18.6750113   5.1881673  38.1546493
  19.1520113   5.4131673  38.7346493  19.4240113   7.3601673  45.3056493
  18.6430113   7.3011673  44.9226493  19.4960113   6.6081673  45.7426493
  19.3190113   7.2411673  45.3136493  19.8540113   7.0971673  48.7736493
  19.8790113   6.4221673  48.2226493  19.2080113   7.5931673  48.4616493
  19.7630113   7.0701673  48.6466493  29.7490113   4.8101673  47.1696493
  29.0870113   5.1381673  47.6326493  29.9360113   5.4441673  46.6006493
  29.6790113   4.9521673  47.1536493  23.9540113  15.8741673  48.1656493
  23.6770113  15.2331673  47.6426493  23.7460113  16.6001673  47.7276493
  23.8830113  15.8871673  48.0236493  27.9420113   2.7791673  40.6806493
  28.4320113   3.4961673  40.6036493  27.1520113   3.0401673  40.4176493
  27.8980113   2.9231673  40.6306493  17.6530113   8.4521673  54.3326493
  17.6160113   8.9531673  53.6186493  17.9840113   7.7001673  54.0376493
  17.6960113   8.4141673  54.1836493  29.2560113  10.6571673  52.5906493
  29.7400113  11.3751673  52.6886493  29.6500113  10.2301673  51.9396493
  29.3860113  10.7001673  52.5086493  23.5520113  13.5021673  53.7676493
  23.9060113  13.3241673  54.5446493  23.1160113  12.7731673  53.5686493
  23.5400113  13.3681673  53.8536493  24.5240113   4.2491673  46.4056493
  25.0040113   4.9481673  46.6136493  24.8970113   3.6021673  46.8566493
  24.6500113   4.2571673  46.5026493  26.7130113   7.4181673  38.6796493
  26.7050113   8.1401673  38.1896493  26.0740113   7.5531673  39.2566493
  26.6180113   7.5451673  38.6926493  31.6850113  11.2881673  42.6606493
  32.0410113  10.9381673  43.3756493  31.6770113  10.6271673  42.0906493
  31.7370113  11.1381673  42.6816493  27.7300113  14.3541673  46.5046493
  27.1270113  14.0581673  45.9476493  28.2750113  14.8061673  45.9956493
  27.7210113  14.3771673  46.3466493  27.7430113  11.2051673  45.9046493
  26.9460113  11.4291673  46.1786493  28.0010113  10.6111673  46.4896493
  27.6630113  11.1501673  46.0316493  23.9270113  15.5331673  38.7546493
  24.5490113  15.6961673  39.3446493  23.9630113  16.2241673  38.2226493
  24.0240113  15.6591673  38.7636493  31.0030113   9.2031673  50.7506493
  31.0580113   9.3281673  49.8886493  31.7560113   9.5231673  51.0526493
  31.1220113   9.2681673  50.6676493  27.1940113  14.5521673  55.0276493
  27.3580113  14.8351673  55.8366493  27.4570113  15.2131673  54.5226493
  27.2570113  14.6921673  55.0726493  18.4280113   8.0671673  39.5836493
  18.7520113   7.2881673  39.3616493  19.0740113   8.4351673  40.0386493
  18.5710113   8.0061673  39.6176493  26.7340113   9.0091673  50.3506493
  26.5790113   9.6191673  50.9546493  27.2680113   8.4511673  50.7566493
  26.7900113   9.0171673  50.4996493  25.1180113   7.4091673  41.0086493
  25.1770113   8.0591673  41.5876493  24.9290113   6.7131673  41.4996493
  25.0990113   7.4021673  41.1666493  30.3440113  11.7381673  46.8776493
  29.8650113  12.0361673  46.2116493  29.9880113  10.9621673  47.0556493
  30.2210113  11.6671673  46.8056493  19.6140113   1.9261673  37.5206493
  19.1030113   1.9791673  36.8146493  20.3980113   2.1661673  37.2246493
  19.6540113   1.9691673  37.3726493  24.3410113   9.4561673  45.4396493
  23.4940113   9.2621673  45.5206493  24.6650113   9.2911673  46.2326493
  24.2630113   9.4031673  45.5686493  18.1890113   9.1491673  47.7556493
  18.9110113   9.6371673  47.7186493  17.9190113   9.1191673  46.9266493
  18.2560113   9.2171673  47.6276493  21.4190113   4.3201673  44.4906493
  22.2650113   4.1301673  44.5886493  21.0490113   3.5431673  44.3526493
  21.4890113   4.1771673  44.4846493  34.0360113  15.9041673  38.8176493
  34.7300113  15.4371673  38.5696493  33.4970113  15.3061673  39.1546493
  34.0590113  15.7461673  38.8306493  16.2400113   5.6581673  41.1456493
  16.7290113   5.3661673  41.8066493  16.3690113   5.0651673  40.5186493
  16.3310113   5.5271673  41.1506493  31.2750113   8.6801673  47.9966493
  31.2680113   7.9041673  48.3946493  30.4340113   8.9141673  47.9896493
  31.1500113   8.6001673  48.0546493  20.7650113   7.0921673  36.6316493
  20.1550113   6.6871673  37.1056493  20.3790113   7.2101673  35.8586493
  20.6180113   7.0491673  36.5876493  17.5840113  10.2011673  52.0336493
  17.1630113   9.6831673  51.4726493  17.2320113  10.9871673  51.8906493
  17.4700113  10.2411673  51.9296493  32.5310113   8.7511673  45.4336493
  32.2450113   9.1521673  46.1536493  33.3910113   8.6891673  45.5606493
  32.6160113   8.8011673  45.5586493  22.2200113   5.5531673  39.3416493
  22.4920113   6.3791673  39.4086493  21.3570113   5.6281673  39.2456493
  22.1330113   5.6861673  39.3366493  30.1930113   2.6751673  53.9736493
  29.6680113   3.1341673  54.4976493  29.8320113   1.8801673  53.9676493
  30.0620113   2.6251673  54.0496493  33.6620113  14.3841673  45.9626493
  33.9520113  14.6411673  45.1816493  34.3570113  14.4801673  46.4816493
  33.8080113  14.4361673  45.9236493  28.6850113   6.2441673  54.0496493
  28.7580113   6.3481673  54.9126493  28.0510113   6.8021673  53.8286493
  28.6020113   6.3421673  54.1446493  30.9530113   6.5631673  52.4146493
  31.2720113   7.3491673  52.6176493  30.5830113   6.2931673  53.1576493
  30.9460113   6.6391673  52.5546493  30.2670113  12.9871673  37.9446493
  30.6010113  12.1811673  37.9796493  29.5120113  12.9151673  38.3746493
  30.2050113  12.8571673  38.0136493  30.7490113   4.8211673  43.6036493
  30.0040113   4.4981673  43.9216493  30.7510113   5.6471673  43.8836493
  30.6390113   4.8951673  43.6916493  33.6510113   7.1051673  55.1496493
  33.5990113   6.7641673  54.3486493  34.3880113   7.5721673  55.1276493
  33.7520113   7.1241673  55.0276493  33.1890113  10.7811673  51.3556493
  33.8170113  10.2321673  51.0996493  33.1280113  11.3461673  50.6936493
  33.2730113  10.7841673  51.2196493  27.6410113  10.8621673  37.3476493
  28.3250113  10.3481673  37.1786493  27.2240113  10.9081673  36.5826493
  27.6800113  10.7931673  37.2096493  22.3230113  12.0121673  48.6516493
  22.0250113  12.6041673  49.2186493  22.3780113  12.4541673  47.9026493
  22.2870113  12.1651673  48.6246493  20.3020113  10.9621673  52.0496493
  19.4960113  10.6721673  52.2166493  20.2130113  11.8301673  52.0556493
  20.1700113  11.0471673  52.0746493  24.8390113   8.4351673  48.1426493
  25.3150113   8.8091673  48.7706493  24.0160113   8.5691673  48.4016493
  24.7880113   8.5101673  48.2736493  21.5490113   4.0381673  50.8836493
  21.7100113   3.2941673  51.3106493  21.5040113   3.7891673  50.0486493
  21.5660113   3.8911673  50.8236493  24.1030113  15.8281673  43.3706493
  24.6490113  16.5071673  43.4246493  23.7530113  15.9101673  42.5756493
  24.1320113  15.9411673  43.2606493  22.2860113  14.0561673  46.7596493
  21.6620113  14.6381673  46.5776493  22.5340113  13.7701673  45.9736493
  22.2300113  14.1001673  46.6166493  26.5950113  10.6901673  53.7486493
  27.3520113  10.9761673  53.4226493  26.0480113  10.7421673  53.0706493
  26.6260113  10.7401673  53.5996493  30.5040113  13.2401673  52.2526493
  30.8500113  13.5101673  53.0066493  30.7980113  13.8221673  51.6726493
  30.5990113  13.3661673  52.2786493  32.3670113   5.3861673  37.5916493
  32.7450113   6.0631673  37.1916493  31.5250113   5.6101673  37.6226493
  32.2980113   5.5191673  37.5366493  23.8800113   8.8321673  36.6746493
  23.0750113   8.6551673  36.3896493  23.8470113   9.6831673  36.8666493
  23.7560113   8.9311673  36.6616493  19.8100113   4.8991673  46.8246493
  20.2500113   4.7961673  46.0786493  20.3550113   4.5861673  47.4296493
  19.9550113   4.8381673  46.8036493  27.8260113   4.0011673  52.4166493
  27.1780113   4.4711673  52.7646493  28.3910113   3.9121673  53.0756493
  27.8140113   4.0571673  52.5656493  27.5140113   5.5381673  48.7146493
  27.8160113   5.9581673  49.4176493  27.5500113   4.6981673  48.9466493
  27.5640113   5.4761673  48.8526493  24.9390113  15.7051673  52.6396493
  25.4170113  15.1051673  52.2236493  24.5880113  15.2621673  53.3046493
  24.9580113  15.5511673  52.6766493  30.0620113   4.9851673  40.9666493
  30.2690113   4.7841673  41.7906493  30.8180113   5.2531673  40.6246493
  30.2040113   4.9951673  41.0376493  31.5270113   9.0121673  40.8206493
  32.0030113   8.2831673  40.7726493  30.7060113   8.7261673  40.7446493
  31.4760113   8.8621673  40.8016493  24.9980113  10.9241673  51.6596493
  24.2030113  10.8601673  52.0106493  25.0690113  11.7711673  51.4646493
  24.8910113  11.0391673  51.6826493  20.8280113  17.1311673  46.9766493
  20.8390113  17.1901673  47.8466493  20.4030113  16.3841673  46.8266493
  20.7670113  17.0291673  47.0826493  18.9860113   3.0261673  40.1316493
  19.1120113   2.6971673  39.3336493  18.1740113   2.7771673  40.3306493
  18.8850113   2.9411673  40.0436493  27.7430113  10.1791673  43.1756493
  27.8190113  10.5201673  43.9746493  27.9120113   9.3321673  43.2966493
  27.7790113  10.1041673  43.3116493  25.2650113   9.4531673  42.7406493
  24.9670113   9.1381673  43.4976493  25.9600113   9.9261673  42.9756493
  25.3240113   9.4761673  42.8876493  25.4870113  13.5711673  50.7676493
  26.1740113  13.4571673  51.2926493  25.6210113  14.3621673  50.4236493
  25.6080113  13.6711673  50.7946493  33.6630113   6.1801673  52.5786493
  32.8080113   6.0581673  52.7046493  33.8160113   5.7851673  51.8156493
  33.5590113   6.1031673  52.4846493  28.1760113   6.8451673  51.1546493
  27.9210113   6.1261673  51.5766493  28.9970113   6.9611673  51.4246493
  28.2600113   6.7561673  51.2566493  17.5920113  16.6291673  52.4186493
  16.9380113  16.0601673  52.5166493  17.2170113  17.4021673  52.5696493
  17.4400113  16.6591673  52.4556493  26.1100113   8.0351673  54.3416493
  26.4330113   8.7211673  53.9096493  25.4060113   8.3581673  54.7436493
  26.0530113   8.1841673  54.3366493  29.1940113  16.4091673  45.2706493
  28.7430113  17.0521673  45.6496493  29.9020113  16.3301673  45.7756493
  29.2320113  16.4921673  45.4016493  25.8950113  11.4991673  48.2006493
  25.2010113  11.9011673  48.5436493  26.5720113  11.9321673  48.5396493
  25.8920113  11.6221673  48.3016493  31.2720113  14.0921673  54.7806493
  32.0480113  13.7021673  54.8636493  30.8030113  13.7561673  55.4356493
  31.3170113  13.9851673  54.8896493  18.9630113   5.0371673  50.5476493
  19.3380113   5.6561673  50.0606493  19.6370113   4.5631673  50.8326493
  19.1180113   5.0591673  50.5176493  16.7380113   3.4851673  49.8226493
  16.8150113   3.3161673  48.9696493  17.4840113   3.8911673  50.0196493
  16.8590113   3.5201673  49.7256493  32.2970113   6.1251673  40.2626493
  32.4000113   6.0671673  39.3986493  33.0380113   5.7931673  40.5806493
  32.4220113   6.0681673  40.1816493  26.2170113  13.0901673  41.3696493
  26.0120113  13.9231673  41.2106493  25.4420113  12.7081673  41.4916493
  26.0720113  13.1571673  41.3646493  31.3990113   6.2711673  49.6186493
  31.3970113   5.4081673  49.7426493  31.4660113   6.5951673  50.4256493
  31.4090113   6.1911673  49.7556493  16.1350113   8.7111673  50.0466493
  16.4550113   8.9301673  49.2656493  16.0350113   7.8461673  49.9916493
  16.1670113   8.6161673  49.9236493  17.5910113   4.6471673  36.6646493
  16.9190113   4.6611673  37.2206493  17.6860113   3.7991673  36.4806493
  17.5060113   4.5241673  36.7196493  21.5790113  13.3521673  37.7786493
  22.0200113  13.4321673  38.5266493  20.7740113  13.1361673  38.0366493
  21.5250113  13.3321673  37.9276493  29.8700113   1.7771673  47.0546493
  30.7250113   1.8761673  47.1996493  29.5010113   2.3301673  47.6196493
  29.9420113   1.8741673  47.1596493  20.8980113   8.0031673  51.4316493
  20.5020113   8.7771673  51.5066493  20.4920113   7.6301673  50.7556493
  20.7800113   8.0621673  51.3426493  30.1740113   7.0571673  45.5456493
  30.8400113   7.5981673  45.7056493  29.8290113   7.3681673  44.8066493
  30.2210113   7.1831673  45.4606493  30.4870113  15.1231673  41.3526493
  30.3130113  14.4691673  41.9026493  31.2000113  14.8521673  40.9296493
  30.5670113  14.9861673  41.3716493  18.9080113  12.4221673  38.3796493
  18.6640113  12.1151673  39.1596493  18.8750113  11.7191673  37.8636493
  18.8670113  12.2731673  38.4186493  21.7270113  10.6671673  37.1226493
  20.9090113  10.3991673  37.2626493  21.6990113  11.5191673  37.3076493
  21.6020113  10.7541673  37.1706493  28.1620113  12.5761673  49.0436493
  28.3680113  12.8771673  49.8356493  28.1010113  13.2981673  48.5586493
  28.1830113  12.7271673  49.0886493  27.6960113  16.7901673  53.2896493
  26.9430113  16.7721673  52.8486493  27.8640113  17.6421673  53.3736493
  27.6100113  16.9131673  53.2366493  22.9330113   6.0571673  52.4596493
  22.6110113   5.4811673  51.8896493  22.5740113   6.8121673  52.2136493
  22.8330113   6.0831673  52.3396493  32.9740113  11.2151673  48.5016493
  32.9420113  10.3531673  48.3666493  32.2810113  11.5171673  48.0676493
  32.8670113  11.1321673  48.4176493  21.3680113  16.4131673  52.7076493
  21.4090113  16.5391673  53.5706493  22.0190113  15.8531673  52.5516493
  21.4700113  16.3491673  52.8126493  31.0790113  14.4751673  47.2986493
  31.6060113  14.3921673  46.6076493  30.6880113  13.6971673  47.3526493
  31.0990113  14.3481673  47.2046493  18.9610113  14.7961673  54.0676493
  19.5560113  15.2271673  54.5396493  18.5970113  15.4201673  53.5786493
  18.9950113  14.9521673  54.0646493  26.9520113   5.7271673  43.9996493
  27.5030113   5.1201673  44.2996493  26.5270113   5.9901673  44.7146493
  26.9710113   5.6761673  44.1486493  17.2000113   4.3771673  43.4856493
  16.8320113   4.6791673  44.2166493  17.7340113   3.7481673  43.7696493
  17.2240113   4.3291673  43.6356493  16.8880113  12.7851673  50.9966493
  16.3140113  13.2011673  51.5056493  17.6210113  13.2501673  51.0916493
  16.9120113  12.9151673  51.0856493  28.9220113   7.5581673  40.5616493
  28.9900113   6.7081673  40.7426493  28.0990113   7.6441673  40.2836493
  28.8100113   7.4451673  40.5476493  18.6740113  16.0521673  39.7716493
  18.5290113  16.2081673  38.9256493  19.5400113  16.1311673  39.8496493
  18.7810113  16.0871673  39.6586493  22.8410113   8.4491673  39.4996493
  22.9410113   8.5881673  38.6446493  23.6590113   8.3891673  39.7956493
  22.9760113   8.4601673  39.4166493  32.0010113  16.5131673  36.9796493
  32.6380113  16.3791673  37.5606493  31.6600113  15.7191673  36.8626493
  32.0450113  16.3761673  37.0476493  32.1960113   8.9311673  53.7126493
  32.8300113   8.7611673  54.2866493  32.6130113   9.3341673  53.0606493
  32.3510113   8.9661673  53.7016493  28.0760113  12.7781673  39.3016493
  27.8250113  12.6501673  40.1276493  27.7590113  12.0831673  38.8806493
  27.9920113  12.6571673  39.3616493  32.8210113   3.4951673  54.4506493
  32.6250113   4.1391673  55.0056493  32.0990113   3.0051673  54.4426493
  32.6860113   3.5181673  54.5316493  32.7200113   4.4361673  47.4216493
  31.8870113   4.6861673  47.3496493  32.6640113   3.5961673  47.6506493
  32.5890113   4.3491673  47.4446493  29.6070113   9.0421673  55.0676493
  30.4780113   9.0061673  55.0316493  29.3880113   9.4621673  54.3356493
  29.7040113   9.0981673  54.9546493  19.3610113  14.8671673  46.2486493
  19.2820113  14.0571673  45.9326493  18.9170113  15.3541673  45.6766493
  19.2840113  14.8191673  46.1176493  24.9620113  10.9861673  38.7316493
  25.6790113  10.6391673  38.3756493  24.9280113  11.7861673  38.3836493
  25.0630113  11.0531673  38.6276493  16.9330113  17.1111673  49.8296493
  17.4260113  17.0551673  50.5476493  17.1210113  16.3781673  49.3946493
  17.0340113  16.9941673  49.8716493  26.1800113   6.5431673  27.6414083
  25.6560113   7.1391673  28.0044083  26.5770113   6.1751673  28.3254083
  26.1610113   6.5771673  27.7964083  16.0490113  10.6831673  23.0974083
  15.6080113  10.8011673  23.8404083  15.7660113   9.9081673  22.8124083
  15.9420113  10.5861673  23.1654083  32.3240113  13.9841673  20.6124083
  33.0250113  13.4651673  20.6084083  31.7370113  13.5391673  20.1434083
  32.3410113  13.8411673  20.5424083  15.7920113   4.4751673  19.6044083
  15.0140113   4.6371673  19.2444083  15.8310113   3.6041673  19.6264083
  15.6830113   4.3701673  19.5544083  18.9310113   9.7381673  18.2764083
  18.5390113   9.3671673  17.5904083  18.8510113   9.1401673  18.9054083
  18.8610113   9.5951673  18.2674083  28.8510113   7.6101673  24.3174083
  28.9310113   7.6141673  23.4484083  28.2670113   6.9781673  24.4664083
  28.7760113   7.5171673  24.2114083  18.5580113  11.3791673  22.1764083
  19.1660113  11.2091673  22.7794083  17.8070113  11.2391673  22.5974083
  18.5370113  11.3331673  22.3274083  17.4490113  14.4701673  18.2534083
  17.9160113  14.5541673  17.5214083  17.9040113  13.8921673  18.7224083
  17.5850113  14.3971673  18.2144083  15.9890113  13.4181673  29.3524083
  16.1180113  13.1381673  30.1684083  15.3790113  12.8771673  29.0434083
  15.9180113  13.2971673  29.4274083  22.5630113  10.9431673  34.4194083
  22.3270113  10.9401673  35.2594083  21.8150113  10.7951673  33.9954083
  22.4170113  10.9201673  34.4804083  17.4350113   7.9391673  23.5544083
  16.9730113   7.5471673  22.9274083  18.1350113   7.4261673  23.6464083
  17.4700113   7.8061673  23.4754083  21.9430113   3.5491673  28.9014083
  22.6210113   3.5671673  28.3524083  21.8980113   2.7131673  29.1464083
  22.0360113   3.4281673  28.8564083  22.5450113  14.1351673  31.6824083
  22.6830113  14.8951673  31.2754083  23.3360113  13.7701673  31.7094083
  22.6820113  14.1941673  31.6264083  19.4360113   6.0391673  23.5774083
  20.2530113   5.8521673  23.8204083  18.9590113   5.4251673  23.9734083
  19.4860113   5.9211673  23.6724083  23.6400113  12.0201673  26.1874083
  23.9880113  11.2211673  26.2174083  24.3050113  12.5241673  25.9324083
  23.7900113  11.9761673  26.1544083  23.6970113  11.4691673  22.3984083
  24.0280113  10.8251673  22.8844083  23.9370113  11.2581673  21.5874083
  23.7810113  11.3431673  22.3504083  25.6650113   5.6001673  33.7374083
  24.8170113   5.5011673  33.5594083  25.6940113   6.3451673  34.1914083
  25.5440113   5.6961673  33.7784083  27.6850113   3.2011673  17.3654083
  27.2350113   3.8821673  17.6724083  27.7990113   2.6971673  18.0684083
  27.6360113   3.2271673  17.5144083  15.8910113   5.7001673  26.5674083
  15.6350113   6.5311673  26.4924083  15.2270113   5.3171673  26.9844083
  15.7550113   5.7661673  26.6184083  15.8010113  15.4101673  24.4674083
  15.2090113  15.9681673  24.1544083  16.2270113  15.1411673  23.7554083
  15.7770113  15.4521673  24.3164083  21.6410113  13.2541673  21.9474083
  21.0620113  12.9791673  22.5394083  22.2650113  12.6451673  21.9724083
  21.6480113  13.1241673  22.0384083  27.7840113  15.5421673  19.4694083
  28.5110113  16.0141673  19.5714083  28.0130113  14.7481673  19.7494083
  27.9260113  15.4951673  19.5264083  25.9520113  15.9341673  21.4594083
  26.1660113  16.4611673  22.1214083  26.7190113  15.7601673  21.0804083
  26.0970113  15.9861673  21.5014083  22.2260113   2.6501673  36.3564083
  22.3430113   2.1961673  35.6204083  22.5140113   3.4481673  36.1534083
  22.2860113   2.7011673  36.2174083  17.3460113  14.0801673  22.3984083
  18.0020113  13.5051673  22.4134083  17.7350113  14.8291673  22.1774083
  17.5010113  14.1051673  22.3684083  33.0790113   3.1741673  23.6604083
  32.7330113   3.8521673  24.0864083  32.4430113   2.5761673  23.6764083
  32.9340113   3.1861673  23.7254083  28.3910113  15.9441673  29.7644083
  29.1350113  16.4001673  29.7544083  28.2700113  15.7301673  28.9274083
  28.4830113  15.9801673  29.6394083  17.9590113   2.2471673  35.3404083
  17.1810113   1.8571673  35.2684083  18.4500113   1.8351673  34.7494083
  17.9160113   2.1281673  35.2424083  18.1640113  12.5671673  25.8984083
  18.5870113  12.2111673  25.2244083  18.4880113  12.1451673  26.5904083
  18.2740113  12.4521673  25.9014083  21.3950113  15.4191673  25.1944083
  22.2390113  15.5231673  24.9994083  21.0980113  16.2371673  25.2624083
  21.4760113  15.5551673  25.1754083  25.2020113   4.8161673  23.2814083
  25.4890113   4.5841673  22.4914083  25.9340113   4.8951673  23.7504083
  25.3520113   4.7931673  23.2344083  25.9240113   5.1551673  18.4024083
  26.2050113   5.9431673  18.6514083  25.1480113   5.3201673  18.0394083
  25.8510113   5.2961673  18.3854083  29.9650113  17.1291673  19.8694083
  30.6300113  16.9811673  19.3244083  30.3250113  17.0461673  20.6594083
  30.1170113  17.0951673  19.9054083  20.3930113  16.6381673  30.9344083
  20.6850113  16.5711673  31.7544083  19.7670113  16.0331673  30.8894083
  20.3440113  16.5391673  31.0494083  15.3070113   2.7951673  32.9264083
  15.3030113   3.3821673  33.5724083  15.9010113   3.1071673  32.3694083
  15.3940113   2.9281673  32.9394083  27.6450113  13.1291673  33.4684083
  27.6110113  13.5111673  34.2524083  28.4990113  13.0871673  33.2974083
  27.7660113  13.1791673  33.5594083  24.7830113  13.3261673  18.2184083
  24.6020113  13.8711673  18.8754083  25.5490113  13.6161673  17.9174083
  24.8690113  13.4501673  18.2714083  18.3860113  14.8001673  30.0564083
  17.6880113  14.2921673  30.1824083  18.6460113  14.5951673  29.2484083
  18.3210113  14.6951673  29.9554083  25.5480113   3.5981673  20.5864083
  25.0400113   2.9361673  20.3324083  25.6000113   4.1021673  19.8764083
  25.4810113   3.5751673  20.4444083  26.0970113  16.2931673  30.9664083
  26.8650113  16.2131673  30.5604083  25.5140113  16.1721673  30.3284083
  26.1240113  16.2631673  30.8124083  32.3740113  16.8961673  23.8674083
  31.9190113  17.6131673  24.0684083  31.7600113  16.3251673  23.6254083
  32.2160113  16.9181673  23.8614083  24.1460113   2.9061673  24.9994083
  24.2200113   3.4741673  24.3414083  24.2670113   3.3981673  25.7094083
  24.1740113   3.0631673  25.0074083  29.3710113  12.7411673  23.4114083
  30.0720113  12.2591673  23.6004083  28.7110113  12.1721673  23.4564083
  29.3770113  12.5861673  23.4454083  19.7470113  13.6511673  32.6234083
  20.5880113  13.7141673  32.4014083  19.7100113  14.0481673  33.3994083
  19.8660113  13.7191673  32.7054083  21.7100113   9.1621673  27.3724083
  21.8820113   8.9521673  28.2014083  21.0550113   8.6281673  27.1564083
  21.6390113   9.0521673  27.4634083  27.9380113   3.0761673  30.8874083
  27.8430113   3.3951673  31.6934083  27.3450113   2.4371673  30.8494083
  27.8360113   3.0281673  31.0014083  22.4600113   9.1001673  29.9624083
  22.5130113   9.9471673  30.1644083  22.1750113   8.7301673  30.6994083
  22.4260113   9.1701673  30.1004083  28.6370113   9.7951673  29.0924083
  28.1230113   9.3831673  29.6634083  28.5110113  10.6391673  29.2734083
  28.5430113   9.8591673  29.2034083  15.2810113  13.4711673  36.1734083
  16.0370113  13.8201673  36.4314083  15.4580113  12.6181673  36.1164083
  15.4190113  13.3961673  36.2034083  31.6580113   3.2561673  32.0314083
  32.4300113   3.0311673  32.3684083  31.1830113   3.4731673  32.7314083
  31.7020113   3.2551673  32.1844083  19.2020113   2.5391673  25.0014083
  19.4740113   2.1091673  24.2934083  19.0260113   1.9031673  25.5724083
  19.2160113   2.3821673  24.9814083  31.8900113  10.2341673  19.2194083
  32.0090113   9.9471673  20.0344083  32.6970113  10.2551673  18.8894083
  32.0260113  10.1951673  19.2914083  19.0260113   9.9661673  24.5504083
  19.8770113   9.8861673  24.3774083  18.6690113   9.2841673  24.1384083
  19.0990113   9.8531673  24.4634083  17.7930113  16.6911673  25.7874083
  17.1200113  16.1931673  25.5424083  18.1960113  16.8761673  25.0364083
  17.7530113  16.6451673  25.6404083  17.3430113   3.6411673  28.0834083
  18.1860113   3.8611673  28.0404083  16.9540113   4.2141673  27.5524083
  17.4100113   3.7581673  27.9984083  34.1240113  14.7431673  33.4734083
  33.4420113  15.0531673  33.0264083  33.7550113  14.2851673  34.1184083
  33.9680113  14.7211673  33.5024083  29.7850113   6.7711673  18.8044083
  29.5650113   7.5021673  18.3824083  29.3370113   6.8221673  19.5514083
  29.6860113   6.8861673  18.8524083  21.3940113   9.9731673  22.7854083
  22.1070113  10.4681673  22.8754083  21.6160113   9.4061673  22.1594083
  21.5320113   9.9621673  22.7064083  15.5500113  11.6161673  26.1054083
  14.8830113  12.1041673  26.3814083  16.2300113  12.1611673  26.1344083
  15.5520113  11.7681673  26.1504083  23.1970113   5.3261673  36.2014083
  22.7130113   5.9031673  36.6434083  23.1690113   5.6211673  35.3804083
  23.1210113   5.4551673  36.1454083  34.2950113   6.0101673  30.8134083
  34.5100113   5.2101673  30.5374083  33.4450113   6.0701673  30.6244083
  34.2010113   5.9011673  30.7444083  15.6160113   8.3001673  21.2084083
  15.4310113   7.4611673  21.3604083  16.2750113   8.2641673  20.6384083
  15.6860113   8.1711673  21.1464083  25.9170113  13.6761673  25.1124083
  25.3940113  14.3101673  24.8194083  26.2270113  13.3121673  24.3834083
  25.8850113  13.7161673  24.9614083  15.7880113  12.4641673  20.7834083
  16.3400113  13.0331673  21.1474083  15.5560113  11.9491673  21.4484083
  15.8350113  12.4721673  20.9354083  19.9920113  11.4641673  27.8724083
  20.4590113  11.7531673  28.5504083  20.5640113  10.9861673  27.4184083
  20.1460113  11.4361673  27.9054083  28.4280113   3.4781673  25.6094083
  28.7720113   3.6301673  26.3964083  27.9750113   2.7401673  25.7224083
  28.4120113   3.3911673  25.7424083  15.6180113  10.9131673  18.4114083
  16.3740113  10.4811673  18.4694083  15.6330113  11.4451673  19.1024083
  15.7320113  10.9281673  18.5224083  16.5580113   9.1341673  26.4164083
  16.9890113   9.0051673  25.6694083  16.3530113   9.9821673  26.3904083
  16.5910113   9.2401673  26.3024083  22.9040113   2.6981673  20.0664083
  22.9020113   2.5811673  19.2014083  22.7230113   3.5461673  20.1584083
  22.8770113   2.8061673  19.9524083  31.9580113  15.1251673  31.5634083
  31.2870113  15.6391673  31.7814083  32.0210113  15.2251673  30.6994083
  31.8680113  15.2161673  31.4684083  20.6420113  12.6501673  24.6984083
  20.7680113  13.4931673  24.8854083  21.3100113  12.2511673  25.0944083
  20.7600113  12.7161673  24.7844083  18.7720113   6.1331673  34.5604083
  18.2360113   5.6271673  35.0284083  18.7920113   5.7431673  33.7804083
  18.6950113   6.0001673  34.5144083  19.2570113   5.5301673  19.7004083
  19.1290113   5.0821673  20.4384083  18.6750113   5.1881673  19.1484083
  19.1520113   5.4131673  19.7284083  19.4240113   7.3601673  26.2994083
  18.6430113   7.3011673  25.9164083  19.4960113   6.6081673  26.7364083
  19.3190113   7.2411673  26.3074083  19.8540113   7.0971673  29.7674083
  19.8790113   6.4221673  29.2164083  19.2080113   7.5931673  29.4554083
  19.7630113   7.0701673  29.6404083  29.7490113   4.8101673  28.1634083
  29.0870113   5.1381673  28.6264083  29.9360113   5.4441673  27.5944083
  29.6790113   4.9521673  28.1474083  23.9540113  15.8741673  29.1594083
  23.6770113  15.2331673  28.6364083  23.7460113  16.6001673  28.7214083
  23.8830113  15.8871673  29.0174083  27.9420113   2.7791673  21.6744083
  28.4320113   3.4961673  21.5974083  27.1520113   3.0401673  21.4114083
  27.8980113   2.9231673  21.6244083  17.6530113   8.4521673  35.3264083
  17.6160113   8.9531673  34.6124083  17.9840113   7.7001673  35.0314083
  17.6960113   8.4141673  35.1774083  29.2560113  10.6571673  33.5844083
  29.7400113  11.3751673  33.6824083  29.6500113  10.2301673  32.9334083
  29.3860113  10.7001673  33.5024083  23.5520113  13.5021673  34.7614083
  23.9060113  13.3241673  35.5384083  23.1160113  12.7731673  34.5624083
  23.5400113  13.3681673  34.8474083  24.5240113   4.2491673  27.3994083
  25.0040113   4.9481673  27.6074083  24.8970113   3.6021673  27.8504083
  24.6500113   4.2571673  27.4964083  26.7130113   7.4181673  19.6734083
  26.7050113   8.1401673  19.1834083  26.0740113   7.5531673  20.2504083
  26.6180113   7.5451673  19.6864083  31.6850113  11.2881673  23.6544083
  32.0410113  10.9381673  24.3694083  31.6770113  10.6271673  23.0844083
  31.7370113  11.1381673  23.6754083  27.7300113  14.3541673  27.4984083
  27.1270113  14.0581673  26.9414083  28.2750113  14.8061673  26.9894083
  27.7210113  14.3771673  27.3404083  27.7430113  11.2051673  26.8984083
  26.9460113  11.4291673  27.1724083  28.0010113  10.6111673  27.4834083
  27.6630113  11.1501673  27.0254083  21.6350113  16.0171673  21.3464083
  21.4880113  15.2411673  21.7174083  22.3240113  15.8701673  20.8314083
  21.7150113  15.8801673  21.3254083  23.9270113  15.5331673  19.7484083
  24.5490113  15.6961673  20.3384083  23.9630113  16.2241673  19.2164083
  24.0240113  15.6591673  19.7574083  31.0030113   9.2031673  31.7444083
  31.0580113   9.3281673  30.8824083  31.7560113   9.5231673  32.0464083
  31.1220113   9.2681673  31.6614083  27.1940113  14.5521673  36.0214083
  27.3580113  14.8351673  36.8304083  27.4570113  15.2131673  35.5164083
  27.2570113  14.6921673  36.0664083  18.4280113   8.0671673  20.5774083
  18.7520113   7.2881673  20.3554083  19.0740113   8.4351673  21.0324083
  18.5710113   8.0061673  20.6114083  26.7340113   9.0091673  31.3444083
  26.5790113   9.6191673  31.9484083  27.2680113   8.4511673  31.7504083
  26.7900113   9.0171673  31.4934083  25.1180113   7.4091673  22.0024083
  25.1770113   8.0591673  22.5814083  24.9290113   6.7131673  22.4934083
  25.0990113   7.4021673  22.1604083  30.3440113  11.7381673  27.8714083
  29.8650113  12.0361673  27.2054083  29.9880113  10.9621673  28.0494083
  30.2210113  11.6671673  27.7994083  19.6140113   1.9261673  18.5144083
  19.1030113   1.9791673  17.8084083  20.3980113   2.1661673  18.2184083
  19.6540113   1.9691673  18.3664083  24.3410113   9.4561673  26.4334083
  23.4940113   9.2621673  26.5144083  24.6650113   9.2911673  27.2264083
  24.2630113   9.4031673  26.5624083  21.0930113  16.1861673  17.3194083
  21.5320113  15.4891673  17.6074083  21.3000113  16.8101673  17.8924083
  21.1890113  16.1751673  17.4464083  18.1890113   9.1491673  28.7494083
  18.9110113   9.6371673  28.7124083  17.9190113   9.1191673  27.9204083
  18.2560113   9.2171673  28.6214083  21.4190113   4.3201673  25.4844083
  22.2650113   4.1301673  25.5824083  21.0490113   3.5431673  25.3464083
  21.4890113   4.1771673  25.4784083  34.0360113  15.9041673  19.8114083
  34.7300113  15.4371673  19.5634083  33.4970113  15.3061673  20.1484083
  34.0590113  15.7461673  19.8244083  16.2400113   5.6581673  22.1394083
  16.7290113   5.3661673  22.8004083  16.3690113   5.0651673  21.5124083
  16.3310113   5.5271673  22.1444083  31.2750113   8.6801673  28.9904083
  31.2680113   7.9041673  29.3884083  30.4340113   8.9141673  28.9834083
  31.1500113   8.6001673  29.0484083  20.7650113   7.0921673  17.6254083
  20.1550113   6.6871673  18.0994083  20.3790113   7.2101673  16.8524083
  20.6180113   7.0491673  17.5814083  17.5840113  10.2011673  33.0274083
  17.1630113   9.6831673  32.4664083  17.2320113  10.9871673  32.8844083
  17.4700113  10.2411673  32.9234083  32.5310113   8.7511673  26.4274083
  32.2450113   9.1521673  27.1474083  33.3910113   8.6891673  26.5544083
  32.6160113   8.8011673  26.5524083  22.2200113   5.5531673  20.3354083
  22.4920113   6.3791673  20.4024083  21.3570113   5.6281673  20.2394083
  22.1330113   5.6861673  20.3304083  30.1930113   2.6751673  34.9674083
  29.6680113   3.1341673  35.4914083  29.8320113   1.8801673  34.9614083
  30.0620113   2.6251673  35.0434083  33.6620113  14.3841673  26.9564083
  33.9520113  14.6411673  26.1754083  34.3570113  14.4801673  27.4754083
  33.8080113  14.4361673  26.9174083  28.6850113   6.2441673  35.0434083
  28.7580113   6.3481673  35.9064083  28.0510113   6.8021673  34.8224083
  28.6020113   6.3421673  35.1384083  30.9530113   6.5631673  33.4084083
  31.2720113   7.3491673  33.6114083  30.5830113   6.2931673  34.1514083
  30.9460113   6.6391673  33.5484083  30.2670113  12.9871673  18.9384083
  30.6010113  12.1811673  18.9734083  29.5120113  12.9151673  19.3684083
  30.2050113  12.8571673  19.0074083  30.7490113   4.8211673  24.5974083
  30.0040113   4.4981673  24.9154083  30.7510113   5.6471673  24.8774083
  30.6390113   4.8951673  24.6854083  33.6510113   7.1051673  36.1434083
  33.5990113   6.7641673  35.3424083  34.3880113   7.5721673  36.1214083
  33.7520113   7.1241673  36.0214083  33.1890113  10.7811673  32.3494083
  33.8170113  10.2321673  32.0934083  33.1280113  11.3461673  31.6874083
  33.2730113  10.7841673  32.2134083  27.6410113  10.8621673  18.3414083
  28.3250113  10.3481673  18.1724083  27.2240113  10.9081673  17.5764083
  27.6800113  10.7931673  18.2034083  22.3230113  12.0121673  29.6454083
  22.0250113  12.6041673  30.2124083  22.3780113  12.4541673  28.8964083
  22.2870113  12.1651673  29.6184083  20.3020113  10.9621673  33.0434083
  19.4960113  10.6721673  33.2104083  20.2130113  11.8301673  33.0494083
  20.1700113  11.0471673  33.0684083  24.8390113   8.4351673  29.1364083
  25.3150113   8.8091673  29.7644083  24.0160113   8.5691673  29.3954083
  24.7880113   8.5101673  29.2674083  21.5490113   4.0381673  31.8774083
  21.7100113   3.2941673  32.3044083  21.5040113   3.7891673  31.0424083
  21.5660113   3.8911673  31.8174083  24.1030113  15.8281673  24.3644083
  24.6490113  16.5071673  24.4184083  23.7530113  15.9101673  23.5694083
  24.1320113  15.9411673  24.2544083  22.2860113  14.0561673  27.7534083
  21.6620113  14.6381673  27.5714083  22.5340113  13.7701673  26.9674083
  22.2300113  14.1001673  27.6104083  26.5950113  10.6901673  34.7424083
  27.3520113  10.9761673  34.4164083  26.0480113  10.7421673  34.0644083
  26.6260113  10.7401673  34.5934083  30.5040113  13.2401673  33.2464083
  30.8500113  13.5101673  34.0004083  30.7980113  13.8221673  32.6664083
  30.5990113  13.3661673  33.2724083  32.3670113   5.3861673  18.5854083
  32.7450113   6.0631673  18.1854083  31.5250113   5.6101673  18.6164083
  32.2980113   5.5191673  18.5304083  23.8800113   8.8321673  17.6684083
  23.0750113   8.6551673  17.3834083  23.8470113   9.6831673  17.8604083
  23.7560113   8.9311673  17.6554083  19.8100113   4.8991673  27.8184083
  20.2500113   4.7961673  27.0724083  20.3550113   4.5861673  28.4234083
  19.9550113   4.8381673  27.7974083  27.8260113   4.0011673  33.4104083
  27.1780113   4.4711673  33.7584083  28.3910113   3.9121673  34.0694083
  27.8140113   4.0571673  33.5594083  27.5140113   5.5381673  29.7084083
  27.8160113   5.9581673  30.4114083  27.5500113   4.6981673  29.9404083
  27.5640113   5.4761673  29.8464083  24.9390113  15.7051673  33.6334083
  25.4170113  15.1051673  33.2174083  24.5880113  15.2621673  34.2984083
  24.9580113  15.5511673  33.6704083  30.0620113   4.9851673  21.9604083
  30.2690113   4.7841673  22.7844083  30.8180113   5.2531673  21.6184083
  30.2040113   4.9951673  22.0314083  31.5270113   9.0121673  21.8144083
  32.0030113   8.2831673  21.7664083  30.7060113   8.7261673  21.7384083
  31.4760113   8.8621673  21.7954083  24.9980113  10.9241673  32.6534083
  24.2030113  10.8601673  33.0044083  25.0690113  11.7711673  32.4584083
  24.8910113  11.0391673  32.6764083  20.8280113  17.1311673  27.9704083
  20.8390113  17.1901673  28.8404083  20.4030113  16.3841673  27.8204083
  20.7670113  17.0291673  28.0764083  18.9860113   3.0261673  21.1254083
  19.1120113   2.6971673  20.3274083  18.1740113   2.7771673  21.3244083
  18.8850113   2.9411673  21.0374083  27.7430113  10.1791673  24.1694083
  27.8190113  10.5201673  24.9684083  27.9120113   9.3321673  24.2904083
  27.7790113  10.1041673  24.3054083  25.2650113   9.4531673  23.7344083
  24.9670113   9.1381673  24.4914083  25.9600113   9.9261673  23.9694083
  25.3240113   9.4761673  23.8814083  25.4870113  13.5711673  31.7614083
  26.1740113  13.4571673  32.2864083  25.6210113  14.3621673  31.4174083
  25.6080113  13.6711673  31.7884083  33.6630113   6.1801673  33.5724083
  32.8080113   6.0581673  33.6984083  33.8160113   5.7851673  32.8094083
  33.5590113   6.1031673  33.4784083  28.1760113   6.8451673  32.1484083
  27.9210113   6.1261673  32.5704083  28.9970113   6.9611673  32.4184083
  28.2600113   6.7561673  32.2504083  17.5920113  16.6291673  33.4124083
  16.9380113  16.0601673  33.5104083  17.2170113  17.4021673  33.5634083
  17.4400113  16.6591673  33.4494083  26.1100113   8.0351673  35.3354083
  26.4330113   8.7211673  34.9034083  25.4060113   8.3581673  35.7374083
  26.0530113   8.1841673  35.3304083  29.1940113  16.4091673  26.2644083
  28.7430113  17.0521673  26.6434083  29.9020113  16.3301673  26.7694083
  29.2320113  16.4921673  26.3954083  25.8950113  11.4991673  29.1944083
  25.2010113  11.9011673  29.5374083  26.5720113  11.9321673  29.5334083
  25.8920113  11.6221673  29.2954083  31.2720113  14.0921673  35.7744083
  32.0480113  13.7021673  35.8574083  30.8030113  13.7561673  36.4294083
  31.3170113  13.9851673  35.8834083  18.9630113   5.0371673  31.5414083
  19.3380113   5.6561673  31.0544083  19.6370113   4.5631673  31.8264083
  19.1180113   5.0591673  31.5114083  16.7380113   3.4851673  30.8164083
  16.8150113   3.3161673  29.9634083  17.4840113   3.8911673  31.0134083
  16.8590113   3.5201673  30.7194083  32.2970113   6.1251673  21.2564083
  32.4000113   6.0671673  20.3924083  33.0380113   5.7931673  21.5744083
  32.4220113   6.0681673  21.1754083  26.2170113  13.0901673  22.3634083
  26.0120113  13.9231673  22.2044083  25.4420113  12.7081673  22.4854083
  26.0720113  13.1571673  22.3584083  31.3990113   6.2711673  30.6124083
  31.3970113   5.4081673  30.7364083  31.4660113   6.5951673  31.4194083
  31.4090113   6.1911673  30.7494083  16.1350113   8.7111673  31.0404083
  16.4550113   8.9301673  30.2594083  16.0350113   7.8461673  30.9854083
  16.1670113   8.6161673  30.9174083  17.5910113   4.6471673  17.6584083
  16.9190113   4.6611673  18.2144083  17.6860113   3.7991673  17.4744083
  17.5060113   4.5241673  17.7134083  21.5790113  13.3521673  18.7724083
  22.0200113  13.4321673  19.5204083  20.7740113  13.1361673  19.0304083
  21.5250113  13.3321673  18.9214083  29.8700113   1.7771673  28.0484083
  30.7250113   1.8761673  28.1934083  29.5010113   2.3301673  28.6134083
  29.9420113   1.8741673  28.1534083  20.8980113   8.0031673  32.4254083
  20.5020113   8.7771673  32.5004083  20.4920113   7.6301673  31.7494083
  20.7800113   8.0621673  32.3364083  30.1740113   7.0571673  26.5394083
  30.8400113   7.5981673  26.6994083  29.8290113   7.3681673  25.8004083
  30.2210113   7.1831673  26.4544083  30.4870113  15.1231673  22.3464083
  30.3130113  14.4691673  22.8964083  31.2000113  14.8521673  21.9234083
  30.5670113  14.9861673  22.3654083  18.9080113  12.4221673  19.3734083
  18.6640113  12.1151673  20.1534083  18.8750113  11.7191673  18.8574083
  18.8670113  12.2731673  19.4124083  21.7270113  10.6671673  18.1164083
  20.9090113  10.3991673  18.2564083  21.6990113  11.5191673  18.3014083
  21.6020113  10.7541673  18.1644083  28.1620113  12.5761673  30.0374083
  28.3680113  12.8771673  30.8294083  28.1010113  13.2981673  29.5524083
  28.1830113  12.7271673  30.0824083  27.6960113  16.7901673  34.2834083
  26.9430113  16.7721673  33.8424083  27.8640113  17.6421673  34.3674083
  27.6100113  16.9131673  34.2304083  22.9330113   6.0571673  33.4534083
  22.6110113   5.4811673  32.8834083  22.5740113   6.8121673  33.2074083
  22.8330113   6.0831673  33.3334083  32.9740113  11.2151673  29.4954083
  32.9420113  10.3531673  29.3604083  32.2810113  11.5171673  29.0614083
  32.8670113  11.1321673  29.4114083  21.3680113  16.4131673  33.7014083
  21.4090113  16.5391673  34.5644083  22.0190113  15.8531673  33.5454083
  21.4700113  16.3491673  33.8064083  31.0790113  14.4751673  28.2924083
  31.6060113  14.3921673  27.6014083  30.6880113  13.6971673  28.3464083
  31.0990113  14.3481673  28.1984083  18.9610113  14.7961673  35.0614083
  19.5560113  15.2271673  35.5334083  18.5970113  15.4201673  34.5724083
  18.9950113  14.9521673  35.0584083  26.9520113   5.7271673  24.9934083
  27.5030113   5.1201673  25.2934083  26.5270113   5.9901673  25.7084083
  26.9710113   5.6761673  25.1424083  17.2000113   4.3771673  24.4794083
  16.8320113   4.6791673  25.2104083  17.7340113   3.7481673  24.7634083
  17.2240113   4.3291673  24.6294083  16.8880113  12.7851673  31.9904083
  16.3140113  13.2011673  32.4994083  17.6210113  13.2501673  32.0854083
  16.9120113  12.9151673  32.0794083  28.9220113   7.5581673  21.5554083
  28.9900113   6.7081673  21.7364083  28.0990113   7.6441673  21.2774083
  28.8100113   7.4451673  21.5414083  18.6740113  16.0521673  20.7654083
  18.5290113  16.2081673  19.9194083  19.5400113  16.1311673  20.8434083
  18.7810113  16.0871673  20.6524083  22.8410113   8.4491673  20.4934083
  22.9410113   8.5881673  19.6384083  23.6590113   8.3891673  20.7894083
  22.9760113   8.4601673  20.4104083  32.0010113  16.5131673  17.9734083
  32.6380113  16.3791673  18.5544083  31.6600113  15.7191673  17.8564083
  32.0450113  16.3761673  18.0414083  32.1960113   8.9311673  34.7064083
  32.8300113   8.7611673  35.2804083  32.6130113   9.3341673  34.0544083
  32.3510113   8.9661673  34.6954083  28.0760113  12.7781673  20.2954083
  27.8250113  12.6501673  21.1214083  27.7590113  12.0831673  19.8744083
  27.9920113  12.6571673  20.3554083  32.8210113   3.4951673  35.4444083
  32.6250113   4.1391673  35.9994083  32.0990113   3.0051673  35.4364083
  32.6860113   3.5181673  35.5254083  32.7200113   4.4361673  28.4154083
  31.8870113   4.6861673  28.3434083  32.6640113   3.5961673  28.6444083
  32.5890113   4.3491673  28.4384083  29.6070113   9.0421673  36.0614083
  30.4780113   9.0061673  36.0254083  29.3880113   9.4621673  35.3294083
  29.7040113   9.0981673  35.9484083  19.3610113  14.8671673  27.2424083
  19.2820113  14.0571673  26.9264083  18.9170113  15.3541673  26.6704083
  19.2840113  14.8191673  27.1114083  24.9620113  10.9861673  19.7254083
  25.6790113  10.6391673  19.3694083  24.9280113  11.7861673  19.3774083
  25.0630113  11.0531673  19.6214083  16.9330113  17.1111673  30.8234083
  17.4260113  17.0551673  31.5414083  17.1210113  16.3781673  30.3884083
  17.0340113  16.9941673  30.8654083  26.1800113   6.5431673   8.6351673
  25.6560113   7.1391673   8.9981673  26.5770113   6.1751673   9.3191673
  26.1610113   6.5771673   8.7901673  16.0490113  10.6831673   4.0911673
  15.6080113  10.8011673   4.8341673  15.7660113   9.9081673   3.8061673
  15.9420113  10.5861673   4.1591673  28.8510113   7.6101673   5.3111673
  28.9310113   7.6141673   4.4421673  28.2670113   6.9781673   5.4601673
  28.7760113   7.5171673   5.2051673  18.5580113  11.3791673   3.1701673
  19.1660113  11.2091673   3.7731673  17.8070113  11.2391673   3.5911673
  18.5370113  11.3331673   3.3211673  15.9890113  13.4181673  10.3461673
  16.1180113  13.1381673  11.1621673  15.3790113  12.8771673  10.0371673
  15.9180113  13.2971673  10.4211673  22.5630113  10.9431673  15.4131673
  22.3270113  10.9401673  16.2531673  21.8150113  10.7951673  14.9891673
  22.4170113  10.9201673  15.4741673  17.4350113   7.9391673   4.5481673
  16.9730113   7.5471673   3.9211673  18.1350113   7.4261673   4.6401673
  17.4700113   7.8061673   4.4691673  21.9430113   3.5491673   9.8951673
  22.6210113   3.5671673   9.3461673  21.8980113   2.7131673  10.1401673
  22.0360113   3.4281673   9.8501673  22.5450113  14.1351673  12.6761673
  22.6830113  14.8951673  12.2691673  23.3360113  13.7701673  12.7031673
  22.6820113  14.1941673  12.6201673  19.4360113   6.0391673   4.5711673
  20.2530113   5.8521673   4.8141673  18.9590113   5.4251673   4.9671673
  19.4860113   5.9211673   4.6661673  23.6400113  12.0201673   7.1811673
  23.9880113  11.2211673   7.2111673  24.3050113  12.5241673   6.9261673
  23.7900113  11.9761673   7.1481673  23.6970113  11.4691673   3.3921673
  24.0280113  10.8251673   3.8781673  23.9370113  11.2581673   2.5811673
  23.7810113  11.3431673   3.3441673  25.6650113   5.6001673  14.7311673
  24.8170113   5.5011673  14.5531673  25.6940113   6.3451673  15.1851673
  25.5440113   5.6961673  14.7721673  15.8910113   5.7001673   7.5611673
  15.6350113   6.5311673   7.4861673  15.2270113   5.3171673   7.9781673
  15.7550113   5.7661673   7.6121673  15.8010113  15.4101673   5.4611673
  15.2090113  15.9681673   5.1481673  16.2270113  15.1411673   4.7491673
  15.7770113  15.4521673   5.3101673  21.6410113  13.2541673   2.9411673
  21.0620113  12.9791673   3.5331673  22.2650113  12.6451673   2.9661673
  21.6480113  13.1241673   3.0321673  25.9520113  15.9341673   2.4531673
  26.1660113  16.4611673   3.1151673  26.7190113  15.7601673   2.0741673
  26.0970113  15.9861673   2.4951673  22.2260113   2.6501673  17.3501673
  22.3430113   2.1961673  16.6141673  22.5140113   3.4481673  17.1471673
  22.2860113   2.7011673  17.2111673  17.3460113  14.0801673   3.3921673
  18.0020113  13.5051673   3.4071673  17.7350113  14.8291673   3.1711673
  17.5010113  14.1051673   3.3621673  33.0790113   3.1741673   4.6541673
  32.7330113   3.8521673   5.0801673  32.4430113   2.5761673   4.6701673
  32.9340113   3.1861673   4.7191673  28.3910113  15.9441673  10.7581673
  29.1350113  16.4001673  10.7481673  28.2700113  15.7301673   9.9211673
  28.4830113  15.9801673  10.6331673  17.9590113   2.2471673  16.3341673
  17.1810113   1.8571673  16.2621673  18.4500113   1.8351673  15.7431673
  17.9160113   2.1281673  16.2361673  18.1640113  12.5671673   6.8921673
  18.5870113  12.2111673   6.2181673  18.4880113  12.1451673   7.5841673
  18.2740113  12.4521673   6.8951673  21.3950113  15.4191673   6.1881673
  22.2390113  15.5231673   5.9931673  21.0980113  16.2371673   6.2561673
  21.4760113  15.5551673   6.1691673  25.2020113   4.8161673   4.2751673
  25.4890113   4.5841673   3.4851673  25.9340113   4.8951673   4.7441673
  25.3520113   4.7931673   4.2281673  20.3930113  16.6381673  11.9281673
  20.6850113  16.5711673  12.7481673  19.7670113  16.0331673  11.8831673
  20.3440113  16.5391673  12.0431673  15.3070113   2.7951673  13.9201673
  15.3030113   3.3821673  14.5661673  15.9010113   3.1071673  13.3631673
  15.3940113   2.9281673  13.9331673  27.6450113  13.1291673  14.4621673
  27.6110113  13.5111673  15.2461673  28.4990113  13.0871673  14.2911673
  27.7660113  13.1791673  14.5531673  18.3860113  14.8001673  11.0501673
  17.6880113  14.2921673  11.1761673  18.6460113  14.5951673  10.2421673
  18.3210113  14.6951673  10.9491673  26.0970113  16.2931673  11.9601673
  26.8650113  16.2131673  11.5541673  25.5140113  16.1721673  11.3221673
  26.1240113  16.2631673  11.8061673  32.3740113  16.8961673   4.8611673
  31.9190113  17.6131673   5.0621673  31.7600113  16.3251673   4.6191673
  32.2160113  16.9181673   4.8551673  24.1460113   2.9061673   5.9931673
  24.2200113   3.4741673   5.3351673  24.2670113   3.3981673   6.7031673
  24.1740113   3.0631673   6.0011673  29.3710113  12.7411673   4.4051673
  30.0720113  12.2591673   4.5941673  28.7110113  12.1721673   4.4501673
  29.3770113  12.5861673   4.4391673  19.7470113  13.6511673  13.6171673
  20.5880113  13.7141673  13.3951673  19.7100113  14.0481673  14.3931673
  19.8660113  13.7191673  13.6991673  21.7100113   9.1621673   8.3661673
  21.8820113   8.9521673   9.1951673  21.0550113   8.6281673   8.1501673
  21.6390113   9.0521673   8.4571673  27.9380113   3.0761673  11.8811673
  27.8430113   3.3951673  12.6871673  27.3450113   2.4371673  11.8431673
  27.8360113   3.0281673  11.9951673  22.4600113   9.1001673  10.9561673
  22.5130113   9.9471673  11.1581673  22.1750113   8.7301673  11.6931673
  22.4260113   9.1701673  11.0941673  28.6370113   9.7951673  10.0861673
  28.1230113   9.3831673  10.6571673  28.5110113  10.6391673  10.2671673
  28.5430113   9.8591673  10.1971673  15.2810113  13.4711673  17.1671673
  16.0370113  13.8201673  17.4251673  15.4580113  12.6181673  17.1101673
  15.4190113  13.3961673  17.1971673  31.6580113   3.2561673  13.0251673
  32.4300113   3.0311673  13.3621673  31.1830113   3.4731673  13.7251673
  31.7020113   3.2551673  13.1781673  19.2020113   2.5391673   5.9951673
  19.4740113   2.1091673   5.2871673  19.0260113   1.9031673   6.5661673
  19.2160113   2.3821673   5.9751673  19.0260113   9.9661673   5.5441673
  19.8770113   9.8861673   5.3711673  18.6690113   9.2841673   5.1321673
  19.0990113   9.8531673   5.4571673  17.7930113  16.6911673   6.7811673
  17.1200113  16.1931673   6.5361673  18.1960113  16.8761673   6.0301673
  17.7530113  16.6451673   6.6341673  17.3430113   3.6411673   9.0771673
  18.1860113   3.8611673   9.0341673  16.9540113   4.2141673   8.5461673
  17.4100113   3.7581673   8.9921673  34.1240113  14.7431673  14.4671673
  33.4420113  15.0531673  14.0201673  33.7550113  14.2851673  15.1121673
  33.9680113  14.7211673  14.4961673  21.3940113   9.9731673   3.7791673
  22.1070113  10.4681673   3.8691673  21.6160113   9.4061673   3.1531673
  21.5320113   9.9621673   3.7001673  15.5500113  11.6161673   7.0991673
  14.8830113  12.1041673   7.3751673  16.2300113  12.1611673   7.1281673
  15.5520113  11.7681673   7.1441673  23.1970113   5.3261673  17.1951673
  22.7130113   5.9031673  17.6371673  23.1690113   5.6211673  16.3741673
  23.1210113   5.4551673  17.1391673  34.2950113   6.0101673  11.8071673
  34.5100113   5.2101673  11.5311673  33.4450113   6.0701673  11.6181673
  34.2010113   5.9011673  11.7381673  15.6160113   8.3001673   2.2021673
  15.4310113   7.4611673   2.3541673  16.2750113   8.2641673   1.6321673
  15.6860113   8.1711673   2.1401673  25.9170113  13.6761673   6.1061673
  25.3940113  14.3101673   5.8131673  26.2270113  13.3121673   5.3771673
  25.8850113  13.7161673   5.9551673  15.7880113  12.4641673   1.7771673
  16.3400113  13.0331673   2.1411673  15.5560113  11.9491673   2.4421673
  15.8350113  12.4721673   1.9291673  19.9920113  11.4641673   8.8661673
  20.4590113  11.7531673   9.5441673  20.5640113  10.9861673   8.4121673
  20.1460113  11.4361673   8.8991673  28.4280113   3.4781673   6.6031673
  28.7720113   3.6301673   7.3901673  27.9750113   2.7401673   6.7161673
  28.4120113   3.3911673   6.7361673  16.5580113   9.1341673   7.4101673
  16.9890113   9.0051673   6.6631673  16.3530113   9.9821673   7.3841673
  16.5910113   9.2401673   7.2961673  31.9580113  15.1251673  12.5571673
  31.2870113  15.6391673  12.7751673  32.0210113  15.2251673  11.6931673
  31.8680113  15.2161673  12.4621673  20.6420113  12.6501673   5.6921673
  20.7680113  13.4931673   5.8791673  21.3100113  12.2511673   6.0881673
  20.7600113  12.7161673   5.7781673  18.7720113   6.1331673  15.5541673
  18.2360113   5.6271673  16.0221673  18.7920113   5.7431673  14.7741673
  18.6950113   6.0001673  15.5081673  19.4240113   7.3601673   7.2931673
  18.6430113   7.3011673   6.9101673  19.4960113   6.6081673   7.7301673
  19.3190113   7.2411673   7.3011673  19.8540113   7.0971673  10.7611673
  19.8790113   6.4221673  10.2101673  19.2080113   7.5931673  10.4491673
  19.7630113   7.0701673  10.6341673  29.7490113   4.8101673   9.1571673
  29.0870113   5.1381673   9.6201673  29.9360113   5.4441673   8.5881673
  29.6790113   4.9521673   9.1411673  23.9540113  15.8741673  10.1531673
  23.6770113  15.2331673   9.6301673  23.7460113  16.6001673   9.7151673
  23.8830113  15.8871673  10.0111673  27.9420113   2.7791673   2.6681673
  28.4320113   3.4961673   2.5911673  27.1520113   3.0401673   2.4051673
  27.8980113   2.9231673   2.6181673  17.6530113   8.4521673  16.3201673
  17.6160113   8.9531673  15.6061673  17.9840113   7.7001673  16.0251673
  17.6960113   8.4141673  16.1711673  29.2560113  10.6571673  14.5781673
  29.7400113  11.3751673  14.6761673  29.6500113  10.2301673  13.9271673
  29.3860113  10.7001673  14.4961673  23.5520113  13.5021673  15.7551673
  23.9060113  13.3241673  16.5321673  23.1160113  12.7731673  15.5561673
  23.5400113  13.3681673  15.8411673  24.5240113   4.2491673   8.3931673
  25.0040113   4.9481673   8.6011673  24.8970113   3.6021673   8.8441673
  24.6500113   4.2571673   8.4901673  31.6850113  11.2881673   4.6481673
  32.0410113  10.9381673   5.3631673  31.6770113  10.6271673   4.0781673
  31.7370113  11.1381673   4.6691673  27.7300113  14.3541673   8.4921673
  27.1270113  14.0581673   7.9351673  28.2750113  14.8061673   7.9831673
  27.7210113  14.3771673   8.3341673  27.7430113  11.2051673   7.8921673
  26.9460113  11.4291673   8.1661673  28.0010113  10.6111673   8.4771673
  27.6630113  11.1501673   8.0191673  21.6350113  16.0171673   2.3401673
  21.4880113  15.2411673   2.7111673  22.3240113  15.8701673   1.8251673
  21.7150113  15.8801673   2.3191673  31.0030113   9.2031673  12.7381673
  31.0580113   9.3281673  11.8761673  31.7560113   9.5231673  13.0401673
  31.1220113   9.2681673  12.6551673  27.1940113  14.5521673  17.0151673
  27.3580113  14.8351673  17.8241673  27.4570113  15.2131673  16.5101673
  27.2570113  14.6921673  17.0601673  26.7340113   9.0091673  12.3381673
  26.5790113   9.6191673  12.9421673  27.2680113   8.4511673  12.7441673
  26.7900113   9.0171673  12.4871673  25.1180113   7.4091673   2.9961673
  25.1770113   8.0591673   3.5751673  24.9290113   6.7131673   3.4871673
  25.0990113   7.4021673   3.1541673  30.3440113  11.7381673   8.8651673
  29.8650113  12.0361673   8.1991673  29.9880113  10.9621673   9.0431673
  30.2210113  11.6671673   8.7931673  24.3410113   9.4561673   7.4271673
  23.4940113   9.2621673   7.5081673  24.6650113   9.2911673   8.2201673
  24.2630113   9.4031673   7.5561673  18.1890113   9.1491673   9.7431673
  18.9110113   9.6371673   9.7061673  17.9190113   9.1191673   8.9141673
  18.2560113   9.2171673   9.6151673  21.4190113   4.3201673   6.4781673
  22.2650113   4.1301673   6.5761673  21.0490113   3.5431673   6.3401673
  21.4890113   4.1771673   6.4721673  16.2400113   5.6581673   3.1331673
  16.7290113   5.3661673   3.7941673  16.3690113   5.0651673   2.5061673
  16.3310113   5.5271673   3.1381673  31.2750113   8.6801673   9.9841673
  31.2680113   7.9041673  10.3821673  30.4340113   8.9141673   9.9771673
  31.1500113   8.6001673  10.0421673  17.5840113  10.2011673  14.0211673
  17.1630113   9.6831673  13.4601673  17.2320113  10.9871673  13.8781673
  17.4700113  10.2411673  13.9171673  32.5310113   8.7511673   7.4211673
  32.2450113   9.1521673   8.1411673  33.3910113   8.6891673   7.5481673
  32.6160113   8.8011673   7.5461673  30.1930113   2.6751673  15.9611673
  29.6680113   3.1341673  16.4851673  29.8320113   1.8801673  15.9551673
  30.0620113   2.6251673  16.0371673  33.6620113  14.3841673   7.9501673
  33.9520113  14.6411673   7.1691673  34.3570113  14.4801673   8.4691673
  33.8080113  14.4361673   7.9111673  28.6850113   6.2441673  16.0371673
  28.7580113   6.3481673  16.9001673  28.0510113   6.8021673  15.8161673
  28.6020113   6.3421673  16.1321673  30.9530113   6.5631673  14.4021673
  31.2720113   7.3491673  14.6051673  30.5830113   6.2931673  15.1451673
  30.9460113   6.6391673  14.5421673  30.7490113   4.8211673   5.5911673
  30.0040113   4.4981673   5.9091673  30.7510113   5.6471673   5.8711673
  30.6390113   4.8951673   5.6791673  33.6510113   7.1051673  17.1371673
  33.5990113   6.7641673  16.3361673  34.3880113   7.5721673  17.1151673
  33.7520113   7.1241673  17.0151673  33.1890113  10.7811673  13.3431673
  33.8170113  10.2321673  13.0871673  33.1280113  11.3461673  12.6811673
  33.2730113  10.7841673  13.2071673  22.3230113  12.0121673  10.6391673
  22.0250113  12.6041673  11.2061673  22.3780113  12.4541673   9.8901673
  22.2870113  12.1651673  10.6121673  20.3020113  10.9621673  14.0371673
  19.4960113  10.6721673  14.2041673  20.2130113  11.8301673  14.0431673
  20.1700113  11.0471673  14.0621673  24.8390113   8.4351673  10.1301673
  25.3150113   8.8091673  10.7581673  24.0160113   8.5691673  10.3891673
  24.7880113   8.5101673  10.2611673  21.5490113   4.0381673  12.8711673
  21.7100113   3.2941673  13.2981673  21.5040113   3.7891673  12.0361673
  21.5660113   3.8911673  12.8111673  24.1030113  15.8281673   5.3581673
  24.6490113  16.5071673   5.4121673  23.7530113  15.9101673   4.5631673
  24.1320113  15.9411673   5.2481673  22.2860113  14.0561673   8.7471673
  21.6620113  14.6381673   8.5651673  22.5340113  13.7701673   7.9611673
  22.2300113  14.1001673   8.6041673  26.5950113  10.6901673  15.7361673
  27.3520113  10.9761673  15.4101673  26.0480113  10.7421673  15.0581673
  26.6260113  10.7401673  15.5871673  30.5040113  13.2401673  14.2401673
  30.8500113  13.5101673  14.9941673  30.7980113  13.8221673  13.6601673
  30.5990113  13.3661673  14.2661673  19.8100113   4.8991673   8.8121673
  20.2500113   4.7961673   8.0661673  20.3550113   4.5861673   9.4171673
  19.9550113   4.8381673   8.7911673  27.8260113   4.0011673  14.4041673
  27.1780113   4.4711673  14.7521673  28.3910113   3.9121673  15.0631673
  27.8140113   4.0571673  14.5531673  27.5140113   5.5381673  10.7021673
  27.8160113   5.9581673  11.4051673  27.5500113   4.6981673  10.9341673
  27.5640113   5.4761673  10.8401673  24.9390113  15.7051673  14.6271673
  25.4170113  15.1051673  14.2111673  24.5880113  15.2621673  15.2921673
  24.9580113  15.5511673  14.6641673  30.0620113   4.9851673   2.9541673
  30.2690113   4.7841673   3.7781673  30.8180113   5.2531673   2.6121673
  30.2040113   4.9951673   3.0251673  31.5270113   9.0121673   2.8081673
  32.0030113   8.2831673   2.7601673  30.7060113   8.7261673   2.7321673
  31.4760113   8.8621673   2.7891673  24.9980113  10.9241673  13.6471673
  24.2030113  10.8601673  13.9981673  25.0690113  11.7711673  13.4521673
  24.8910113  11.0391673  13.6701673  20.8280113  17.1311673   8.9641673
  20.8390113  17.1901673   9.8341673  20.4030113  16.3841673   8.8141673
  20.7670113  17.0291673   9.0701673  27.7430113  10.1791673   5.1631673
  27.8190113  10.5201673   5.9621673  27.9120113   9.3321673   5.2841673
  27.7790113  10.1041673   5.2991673  25.2650113   9.4531673   4.7281673
  24.9670113   9.1381673   5.4851673  25.9600113   9.9261673   4.9631673
  25.3240113   9.4761673   4.8751673  25.4870113  13.5711673  12.7551673
  26.1740113  13.4571673  13.2801673  25.6210113  14.3621673  12.4111673
  25.6080113  13.6711673  12.7821673  33.6630113   6.1801673  14.5661673
  32.8080113   6.0581673  14.6921673  33.8160113   5.7851673  13.8031673
  33.5590113   6.1031673  14.4721673  28.1760113   6.8451673  13.1421673
  27.9210113   6.1261673  13.5641673  28.9970113   6.9611673  13.4121673
  28.2600113   6.7561673  13.2441673  17.5920113  16.6291673  14.4061673
  16.9380113  16.0601673  14.5041673  17.2170113  17.4021673  14.5571673
  17.4400113  16.6591673  14.4431673  26.1100113   8.0351673  16.3291673
  26.4330113   8.7211673  15.8971673  25.4060113   8.3581673  16.7311673
  26.0530113   8.1841673  16.3241673  29.1940113  16.4091673   7.2581673
  28.7430113  17.0521673   7.6371673  29.9020113  16.3301673   7.7631673
  29.2320113  16.4921673   7.3891673  25.8950113  11.4991673  10.1881673
  25.2010113  11.9011673  10.5311673  26.5720113  11.9321673  10.5271673
  25.8920113  11.6221673  10.2891673  31.2720113  14.0921673  16.7681673
  32.0480113  13.7021673  16.8511673  30.8030113  13.7561673  17.4231673
  31.3170113  13.9851673  16.8771673  18.9630113   5.0371673  12.5351673
  19.3380113   5.6561673  12.0481673  19.6370113   4.5631673  12.8201673
  19.1180113   5.0591673  12.5051673  16.7380113   3.4851673  11.8101673
  16.8150113   3.3161673  10.9571673  17.4840113   3.8911673  12.0071673
  16.8590113   3.5201673  11.7131673  26.2170113  13.0901673   3.3571673
  26.0120113  13.9231673   3.1981673  25.4420113  12.7081673   3.4791673
  26.0720113  13.1571673   3.3521673  31.3990113   6.2711673  11.6061673
  31.3970113   5.4081673  11.7301673  31.4660113   6.5951673  12.4131673
  31.4090113   6.1911673  11.7431673  16.1350113   8.7111673  12.0341673
  16.4550113   8.9301673  11.2531673  16.0350113   7.8461673  11.9791673
  16.1670113   8.6161673  11.9111673  29.8700113   1.7771673   9.0421673
  30.7250113   1.8761673   9.1871673  29.5010113   2.3301673   9.6071673
  29.9420113   1.8741673   9.1471673  20.8980113   8.0031673  13.4191673
  20.5020113   8.7771673  13.4941673  20.4920113   7.6301673  12.7431673
  20.7800113   8.0621673  13.3301673  30.1740113   7.0571673   7.5331673
  30.8400113   7.5981673   7.6931673  29.8290113   7.3681673   6.7941673
  30.2210113   7.1831673   7.4481673  30.4870113  15.1231673   3.3401673
  30.3130113  14.4691673   3.8901673  31.2000113  14.8521673   2.9171673
  30.5670113  14.9861673   3.3591673  28.1620113  12.5761673  11.0311673
  28.3680113  12.8771673  11.8231673  28.1010113  13.2981673  10.5461673
  28.1830113  12.7271673  11.0761673  27.6960113  16.7901673  15.2771673
  26.9430113  16.7721673  14.8361673  27.8640113  17.6421673  15.3611673
  27.6100113  16.9131673  15.2241673  22.9330113   6.0571673  14.4471673
  22.6110113   5.4811673  13.8771673  22.5740113   6.8121673  14.2011673
  22.8330113   6.0831673  14.3271673  32.9740113  11.2151673  10.4891673
  32.9420113  10.3531673  10.3541673  32.2810113  11.5171673  10.0551673
  32.8670113  11.1321673  10.4051673  21.3680113  16.4131673  14.6951673
  21.4090113  16.5391673  15.5581673  22.0190113  15.8531673  14.5391673
  21.4700113  16.3491673  14.8001673  31.0790113  14.4751673   9.2861673
  31.6060113  14.3921673   8.5951673  30.6880113  13.6971673   9.3401673
  31.0990113  14.3481673   9.1921673  18.9610113  14.7961673  16.0551673
  19.5560113  15.2271673  16.5271673  18.5970113  15.4201673  15.5661673
  18.9950113  14.9521673  16.0521673  26.9520113   5.7271673   5.9871673
  27.5030113   5.1201673   6.2871673  26.5270113   5.9901673   6.7021673
  26.9710113   5.6761673   6.1361673  17.2000113   4.3771673   5.4731673
  16.8320113   4.6791673   6.2041673  17.7340113   3.7481673   5.7571673
  17.2240113   4.3291673   5.6231673  16.8880113  12.7851673  12.9841673
  16.3140113  13.2011673  13.4931673  17.6210113  13.2501673  13.0791673
  16.9120113  12.9151673  13.0731673  28.9220113   7.5581673   2.5491673
  28.9900113   6.7081673   2.7301673  28.0990113   7.6441673   2.2711673
  28.8100113   7.4451673   2.5351673  32.1960113   8.9311673  15.7001673
  32.8300113   8.7611673  16.2741673  32.6130113   9.3341673  15.0481673
  32.3510113   8.9661673  15.6891673  32.8210113   3.4951673  16.4381673
  32.6250113   4.1391673  16.9931673  32.0990113   3.0051673  16.4301673
  32.6860113   3.5181673  16.5191673  32.7200113   4.4361673   9.4091673
  31.8870113   4.6861673   9.3371673  32.6640113   3.5961673   9.6381673
  32.5890113   4.3491673   9.4321673  29.6070113   9.0421673  17.0551673
  30.4780113   9.0061673  17.0191673  29.3880113   9.4621673  16.3231673
  29.7040113   9.0981673  16.9421673  19.3610113  14.8671673   8.2361673
  19.2820113  14.0571673   7.9201673  18.9170113  15.3541673   7.6641673
  19.2840113  14.8191673   8.1051673  16.9330113  17.1111673  11.8171673
  17.4260113  17.0551673  12.5351673  17.1210113  16.3781673  11.3821673
  17.0340113  16.9941673  11.8591673   7.5061673  55.0614913  79.9891313
   7.2611673  55.5494913  79.3091313   8.3691673  54.9884913  79.8891313
   7.5971673  55.1224913  79.8741313   7.3151673  61.9774913  84.6601313
   6.7911673  62.5734913  85.0231313   7.7121673  61.6094913  85.3441313
   7.2961673  62.0114913  84.8151313  13.4591673  69.4184913  77.6311313
  14.1601673  68.8994913  77.6271313  12.8721673  68.9734913  77.1621313
  13.4761673  69.2754913  77.5611313   9.9861673  63.0444913  81.3361313
  10.0661673  63.0484913  80.4671313   9.4021673  62.4124913  81.4851313
   9.9111673  62.9514913  81.2301313   3.9751673  56.1484913  79.1441313
   3.9051673  56.8254913  78.5981313   4.7161673  55.7604913  78.8951313
   4.0741673  56.1914913  79.0261313   3.0781673  58.9834913  85.9201313
   3.7561673  59.0014913  85.3711313   3.0331673  58.1474913  86.1651313
   3.1711673  58.8624913  85.8751313   4.7751673  67.4544913  83.2061313
   5.1231673  66.6554913  83.2361313   5.4401673  67.9584913  82.9511313
   4.9251673  67.4104913  83.1731313   4.8321673  66.9034913  79.4171313
   5.1631673  66.2594913  79.9031313   5.0721673  66.6924913  78.6061313
   4.9161673  66.7774913  79.3691313   4.1471673  55.7094913  82.0851313
   4.2201673  56.5694913  82.2141313   4.1091673  55.6344913  81.2171313
   4.1521673  55.8254913  81.9761313   8.8201673  58.6354913  74.3841313
   8.3701673  59.3164913  74.6911313   8.9341673  58.1314913  75.0871313
   8.7711673  58.6614913  74.5331313   2.7761673  68.6884913  78.9661313
   2.1971673  68.4134913  79.5581313   3.4001673  68.0794913  78.9911313
   2.7831673  68.5584913  79.0571313  14.2141673  58.6084913  80.6791313
  13.8681673  59.2864913  81.1051313  13.5781673  58.0104913  80.6951313
  14.0691673  58.6204913  80.7441313   6.3371673  60.2504913  80.3001313
   6.6241673  60.0184913  79.5101313   7.0691673  60.3294913  80.7691313
   6.4871673  60.2274913  80.2531313   7.0591673  60.5894913  75.4211313
   7.3401673  61.3774913  75.6701313   6.2831673  60.7544913  75.0581313
   6.9861673  60.7304913  75.4041313  13.8891673  56.9314913  86.0481313
  14.6461673  57.0034913  85.6201313  13.9521673  56.1584913  86.4471313
  14.0101673  56.8284913  86.0431313   5.9181673  68.7604913  75.2371313
   5.7371673  69.3054913  75.8941313   6.6841673  69.0504913  74.9361313
   6.0041673  68.8844913  75.2901313   9.4251673  56.6564913  76.2911313
   9.9651673  55.9744913  76.3671313   9.4871673  57.0544913  77.0651313
   9.5141673  56.6144913  76.4171313   6.6831673  59.0324913  77.6051313
   6.1751673  58.3704913  77.3511313   6.7351673  59.5364913  76.8951313
   6.6161673  59.0094913  77.4631313   6.6831673  55.9734913  77.4961313
   6.2281673  55.5714913  76.8701313   7.4561673  56.1284913  77.1211313
   6.7301673  55.9374913  77.3481313   5.2811673  58.3404913  82.0181313
   5.3551673  58.9084913  81.3601313   5.4021673  58.8324913  82.7281313
   5.3091673  58.4974913  82.0261313  10.5061673  68.1754913  80.4301313
  11.2071673  67.6934913  80.6191313   9.8461673  67.6064913  80.4751313
  10.5121673  68.0204913  80.4641313   2.8451673  64.5964913  84.3911313
   3.0171673  64.3864913  85.2201313   2.1901673  64.0624913  84.1751313
   2.7741673  64.4864913  84.4821313   9.0731673  58.5104913  87.9061313
   8.9781673  58.8294913  88.7121313   8.4801673  57.8714913  87.8681313
   8.9711673  58.4624913  88.0201313   3.5951673  64.5344913  86.9811313
   3.6481673  65.3814913  87.1831313   3.3101673  64.1644913  87.7181313
   3.5611673  64.6044913  87.1191313   9.7721673  65.2294913  86.1111313
   9.2581673  64.8174913  86.6821313   9.6461673  66.0734913  86.2921313
   9.6781673  65.2934913  86.2221313  10.3291673  54.4544913  80.7421313
  10.3781673  54.1364913  81.5531313  10.6521673  53.8104913  80.2491313
  10.3841673  54.3124913  80.7891313  12.7931673  58.6904913  89.0501313
  13.5651673  58.4654913  89.3871313  12.3181673  58.9074913  89.7501313
  12.8371673  58.6894913  89.2031313  13.0251673  65.6684913  76.2381313
  13.1441673  65.3814913  77.0531313  13.8321673  65.6894913  75.9081313
  13.1611673  65.6294913  76.3101313  10.9201673  62.2054913  75.8231313
  10.7001673  62.9364913  75.4011313  10.4721673  62.2564913  76.5701313
  10.8211673  62.3204913  75.8711313   2.5291673  65.4074913  79.8041313
   3.2421673  65.9024913  79.8941313   2.7511673  64.8404913  79.1781313
   2.6671673  65.3964913  79.7251313  15.1071673  57.0664913  75.2761313
  14.4451673  56.4984913  75.2991313  14.9141673  57.5784913  74.5961313
  14.9811673  57.0584913  75.1791313  15.4301673  61.4444913  87.8321313
  15.6451673  60.6444913  87.5561313  14.5801673  61.5044913  87.6431313
  15.3361673  61.3354913  87.7631313  13.1091673  56.6244913  77.5551313
  13.8551673  56.2174913  77.7541313  13.3721673  57.3394913  77.1301313
  13.2581673  56.6704913  77.5221313   7.0521673  69.1104913  82.1311313
   6.5291673  69.7444913  81.8381313   7.3621673  68.7464913  81.4021313
   7.0201673  69.1504913  81.9801313   9.5631673  58.9124913  82.6281313
   9.9071673  59.0644913  83.4151313   9.1101673  58.1744913  82.7411313
   9.5471673  58.8254913  82.7611313   4.0391673  58.1324913  77.0851313
   4.0371673  58.0154913  76.2201313   3.8581673  58.9804913  77.1771313
   4.0121673  58.2404913  76.9711313   1.7771673  68.0844913  81.7171313
   1.9031673  68.9274913  81.9041313   2.4451673  67.6854913  82.1131313
   1.8951673  68.1504913  81.8031313  10.8841673  60.2444913  85.1821313
  10.2221673  60.5724913  85.6451313  11.0711673  60.8784913  84.6131313
  10.8141673  60.3864913  85.1661313   7.5291673  56.1504913  88.6111313
   7.6781673  55.3254913  88.3681313   7.9081673  56.2054913  89.3951313
   7.6071673  56.0364913  88.6911313   9.0771673  58.2134913  78.6931313
   9.5671673  58.9304913  78.6161313   8.2871673  58.4744913  78.4301313
   9.0331673  58.3574913  78.6431313   5.6591673  59.6834913  84.4181313
   6.1391673  60.3824913  84.6261313   6.0321673  59.0364913  84.8691313
   5.7851673  59.6914913  84.5151313   7.8481673  62.8524913  76.6921313
   7.8401673  63.5744913  76.2021313   7.2091673  62.9874913  77.2691313
   7.7531673  62.9794913  76.7051313  12.8201673  66.7224913  80.6731313
  13.1761673  66.3724913  81.3881313  12.8121673  66.0614913  80.1031313
  12.8721673  66.5724913  80.6941313   8.8781673  66.6394913  83.9171313
   8.0811673  66.8634913  84.1911313   9.1361673  66.0454913  84.5021313
   8.7981673  66.5844913  84.0441313   2.4411673  55.1944913  76.3531313
   2.5381673  55.0874913  77.2141313   1.7331673  55.7004913  76.2881313
   2.3511673  55.2534913  76.4711313  12.1381673  64.6374913  88.7631313
  12.1931673  64.7624913  87.9011313  12.8911673  64.9574913  89.0651313
  12.2571673  64.7024913  88.6801313   7.8691673  64.4434913  88.3631313
   7.7141673  65.0534913  88.9671313   8.4031673  63.8854913  88.7691313
   7.9251673  64.4514913  88.5121313   6.2531673  62.8434913  79.0211313
   6.3121673  63.4934913  79.6001313   6.0641673  62.1474913  79.5121313
   6.2341673  62.8364913  79.1791313  11.4791673  67.1724913  84.8901313
  11.0001673  67.4704913  84.2241313  11.1231673  66.3964913  85.0681313
  11.3561673  67.1014913  84.8181313   5.4761673  64.8904913  83.4521313
   4.6291673  64.6964913  83.5331313   5.8001673  64.7254913  84.2451313
   5.3981673  64.8374913  83.5811313   2.5541673  59.7544913  82.5031313
   3.4001673  59.5644913  82.6011313   2.1841673  58.9774913  82.3651313
   2.6241673  59.6114913  82.4971313  12.4101673  64.1144913  86.0091313
  12.4031673  63.3384913  86.4071313  11.5691673  64.3484913  86.0021313
  12.2851673  64.0344913  86.0671313  13.6661673  64.1854913  83.4461313
  13.3801673  64.5864913  84.1661313  14.5261673  64.1234913  83.5731313
  13.7511673  64.2354913  83.5711313   3.3551673  60.9874913  77.3541313
   3.6271673  61.8134913  77.4211313   2.4921673  61.0624913  77.2581313
   3.2681673  61.1204913  77.3491313  14.7971673  69.8184913  83.9751313
  15.0871673  70.0754913  83.1941313  15.4921673  69.9144913  84.4941313
  14.9431673  69.8704913  83.9361313  11.4021673  68.4214913  75.9571313
  11.7361673  67.6154913  75.9921313  10.6471673  68.3494913  76.3871313
  11.3401673  68.2914913  76.0261313  11.8841673  60.2554913  81.6161313
  11.1391673  59.9324913  81.9341313  11.8861673  61.0814913  81.8961313
  11.7741673  60.3294913  81.7041313  14.3241673  66.2154913  89.3681313
  14.9521673  65.6664913  89.1121313  14.2631673  66.7804913  88.7061313
  14.4081673  66.2184913  89.2321313   8.7761673  66.2964913  75.3601313
   9.4601673  65.7824913  75.1911313   8.3591673  66.3424913  74.5951313
   8.8151673  66.2274913  75.2221313   3.4581673  67.4464913  86.6641313
   3.1601673  68.0384913  87.2311313   3.5131673  67.8884913  85.9151313
   3.4221673  67.5994913  86.6371313  10.7961673  56.5854913  89.0771313
  11.5401673  57.0374913  89.0141313  10.2301673  57.0554913  88.6081313
  10.8231673  56.7224913  88.9991313   5.9741673  63.8694913  86.1551313
   6.4501673  64.2434913  86.7831313   5.1511673  64.0034913  86.4141313
   5.9231673  63.9444913  86.2861313   2.6841673  59.4724913  88.8961313
   2.8451673  58.7284913  89.3231313   2.6391673  59.2234913  88.0611313
   2.7011673  59.3254913  88.8361313  12.0811673  54.5654913  86.7471313
  11.8011673  55.3904913  86.7031313  12.7971673  54.6184913  87.2431313
  12.1461673  54.6954913  86.8141313   4.4361673  55.2804913  88.7761313
   5.1411673  55.6004913  88.3741313   4.6771673  54.4734913  89.0031313
   4.5751673  55.2084913  88.7501313   3.4211673  69.4904913  84.7721313
   2.7971673  70.0724913  84.5901313   3.6691673  69.2044913  83.9861313
   3.3651673  69.5344913  84.6291313  13.5021673  60.8204913  75.6041313
  13.8801673  61.4974913  75.2041313  12.6601673  61.0444913  75.6351313
  13.4331673  60.9534913  75.5491313   5.0151673  64.2664913  74.6871313
   4.2101673  64.0894913  74.4021313   4.9821673  65.1174913  74.8791313
   4.8911673  64.3654913  74.6741313   8.6491673  60.9724913  86.7271313
   8.9511673  61.3924913  87.4301313   8.6851673  60.1324913  86.9591313
   8.6991673  60.9104913  86.8651313  11.1971673  60.4194913  78.9791313
  11.4041673  60.2184913  79.8031313  11.9531673  60.6874913  78.6371313
  11.3391673  60.4294913  79.0501313   4.4921673  55.3184913  84.8841313
   3.6661673  55.1694913  85.1211313   4.4521673  55.3534913  84.0131313
   4.3641673  55.3014913  84.7901313  12.2191673  56.5024913  80.4531313
  11.5051673  56.0314913  80.6241313  12.0571673  56.8434913  79.6671313
  12.0901673  56.4834913  80.3621313  12.6621673  64.4464913  78.8331313
  13.1381673  63.7174913  78.7851313  11.8411673  64.1604913  78.7571313
  12.6111673  64.2964913  78.8141313   6.1331673  66.3584913  89.6721313
   5.3381673  66.2944913  90.0231313   6.2041673  67.2054913  89.4771313
   6.0261673  66.4734913  89.6951313   8.8781673  65.6134913  81.1881313
   8.9541673  65.9544913  81.9871313   9.0471673  64.7664913  81.3091313
   8.9141673  65.5384913  81.3241313   6.4001673  64.8874913  80.7531313
   6.1021673  64.5724913  81.5101313   7.0951673  65.3604913  80.9881313
   6.4591673  64.9104913  80.9001313   6.6221673  69.0054913  88.7801313
   7.3091673  68.8914913  89.3051313   6.7561673  69.7964913  88.4361313
   6.7431673  69.1054913  88.8071313   9.3111673  62.2794913  89.1671313
   9.0561673  61.5604913  89.5891313  10.1321673  62.3954913  89.4371313
   9.3951673  62.1904913  89.2691313   7.0301673  66.9334913  86.2131313
   6.3361673  67.3354913  86.5561313   7.7071673  67.3664913  86.5521313
   7.0271673  67.0564913  86.3141313  13.4321673  61.5594913  78.2751313
  13.5351673  61.5014913  77.4111313  14.1731673  61.2274913  78.5931313
  13.5571673  61.5024913  78.1941313   7.3521673  68.5244913  79.3821313
   7.1471673  69.3574913  79.2231313   6.5771673  68.1424913  79.5041313
   7.2071673  68.5914913  79.3771313  12.5341673  61.7054913  87.6311313
  12.5321673  60.8424913  87.7551313  12.6011673  62.0294913  88.4381313
  12.5441673  61.6254913  87.7681313   7.4071673  56.6954913  82.2671313
   6.7071673  57.2134913  82.2111313   7.4451673  56.3154913  81.4831313
   7.3091673  56.7164913  82.1431313   2.7141673  68.7864913  75.7911313
   3.1551673  68.8664913  76.5391313   1.9091673  68.5704913  76.0491313
   2.6601673  68.7664913  75.9401313  11.0051673  57.2114913  85.0671313
  11.8601673  57.3104913  85.2121313  10.6361673  57.7644913  85.6321313
  11.0771673  57.3084913  85.1721313   2.0331673  63.4374913  89.4441313
   1.6371673  64.2114913  89.5191313   1.6271673  63.0644913  88.7681313
   1.9151673  63.4964913  89.3551313  11.3091673  62.4914913  83.5581313
  11.9751673  63.0324913  83.7181313  10.9641673  62.8024913  82.8191313
  11.3561673  62.6174913  83.4731313   2.8621673  66.1014913  75.1351313
   2.0441673  65.8334913  75.2751313   2.8341673  66.9534913  75.3201313
   2.7371673  66.1884913  75.1831313   2.4621673  56.4144913  86.8941313
   1.5981673  56.4984913  86.9741313   2.6821673  55.9004913  87.5631313
   2.3671673  56.3514913  87.0051313  14.4801673  55.0494913  88.2231313
  14.4281673  55.0054913  89.0931313  15.1671673  54.5464913  88.0331313
  14.5741673  54.9694913  88.3231313   6.5651673  57.1624913  85.2681313
   5.8281673  56.7084913  85.3811313   7.1361673  56.7604913  85.7911313
   6.5401673  57.0354913  85.3621313   9.2971673  68.0104913  87.0561313
   9.5031673  68.3114913  87.8481313   9.2361673  68.7324913  86.5711313
   9.3181673  68.1614913  87.1011313   4.8641673  54.7434913  75.0991313
   4.9421673  54.9904913  74.2661313   4.1211673  55.1204913  75.3571313
   4.7661673  54.8354913  75.0141313  14.1091673  66.6494913  86.5141313
  14.0771673  65.7874913  86.3791313  13.4161673  66.9514913  86.0801313
  14.0021673  66.5664913  86.4301313  12.2141673  69.9094913  85.3111313
  12.7411673  69.8264913  84.6201313  11.8231673  69.1314913  85.3651313
  12.2341673  69.7824913  85.2171313   8.7281673  55.3534913  84.5191313
   9.3981673  55.8974913  84.6461313   8.2251673  55.7774913  83.9461313
   8.7531673  55.4964913  84.4531313   8.0871673  61.1614913  82.0121313
   8.6381673  60.5544913  82.3121313   7.6621673  61.4244913  82.7271313
   8.1061673  61.1104913  82.1611313  10.0571673  62.9924913  78.5741313
  10.1251673  62.1424913  78.7551313   9.2341673  63.0784913  78.2961313
   9.9451673  62.8794913  78.5601313   3.9761673  63.8834913  77.5121313
   4.0761673  64.0224913  76.6571313   4.7941673  63.8234913  77.8081313
   4.1111673  63.8944913  77.4291313   9.2111673  68.2124913  77.3141313
   8.9601673  68.0844913  78.1401313   8.8941673  67.5174913  76.8931313
   9.1271673  68.0914913  77.3741313  13.8551673  59.8704913  85.4341313
  13.0221673  60.1204913  85.3621313  13.7991673  59.0304913  85.6631313
  13.7241673  59.7834913  85.4571313   6.0971673  66.4204913  76.7441313
   6.8141673  66.0734913  76.3881313   6.0631673  67.2204913  76.3961313
   6.1981673  66.4874913  76.6401313   7.5061673  55.0614913  60.9828903
   7.2611673  55.5494913  60.3028903   8.3691673  54.9884913  60.8828903
   7.5971673  55.1224913  60.8678903   7.3151673  61.9774913  65.6538903
   6.7911673  62.5734913  66.0168903   7.7121673  61.6094913  66.3378903
   7.2961673  62.0114913  65.8088903  13.4591673  69.4184913  58.6248903
  14.1601673  68.8994913  58.6208903  12.8721673  68.9734913  58.1558903
  13.4761673  69.2754913  58.5548903   9.9861673  63.0444913  62.3298903
  10.0661673  63.0484913  61.4608903   9.4021673  62.4124913  62.4788903
   9.9111673  62.9514913  62.2238903   3.9751673  56.1484913  60.1378903
   3.9051673  56.8254913  59.5918903   4.7161673  55.7604913  59.8888903
   4.0741673  56.1914913  60.0198903   3.6981673  66.3774913  72.4318903
   3.4621673  66.3744913  73.2718903   2.9501673  66.2294913  72.0078903
   3.5521673  66.3544913  72.4928903   3.0781673  58.9834913  66.9138903
   3.7561673  59.0014913  66.3648903   3.0331673  58.1474913  67.1588903
   3.1711673  58.8624913  66.8688903   4.7751673  67.4544913  64.1998903
   5.1231673  66.6554913  64.2298903   5.4401673  67.9584913  63.9448903
   4.9251673  67.4104913  64.1668903   4.8321673  66.9034913  60.4108903
   5.1631673  66.2594913  60.8968903   5.0721673  66.6924913  59.5998903
   4.9161673  66.7774913  60.3628903   6.8001673  61.0344913  71.7498903
   5.9521673  60.9354913  71.5718903   6.8291673  61.7794913  72.2038903
   6.6791673  61.1304913  71.7908903  11.3581673  53.9944913  70.8638903
  11.2001673  54.7634913  70.4818903  10.5861673  53.7744913  71.2078903
  11.2201673  54.0754913  70.8588903   4.1471673  55.7094913  63.0788903
   4.2201673  56.5694913  63.2078903   4.1091673  55.6344913  62.2108903
   4.1521673  55.8254913  62.9698903   8.8201673  58.6354913  55.3778903
   8.3701673  59.3164913  55.6848903   8.9341673  58.1314913  56.0808903
   8.7711673  58.6614913  55.5268903   2.7761673  68.6884913  59.9598903
   2.1971673  68.4134913  60.5518903   3.4001673  68.0794913  59.9848903
   2.7831673  68.5584913  60.0508903   3.3611673  58.0844913  74.3688903
   3.4781673  57.6304913  73.6328903   3.6491673  58.8824913  74.1658903
   3.4211673  58.1354913  74.2298903  14.2141673  58.6084913  61.6728903
  13.8681673  59.2864913  62.0988903  13.5781673  58.0104913  61.6888903
  14.0691673  58.6204913  61.7378903   5.7431673  55.3244913  72.5208903
   5.9211673  54.5154913  72.2458903   5.6001673  55.7654913  71.7818903
   5.7481673  55.2704913  72.3708903   6.3371673  60.2504913  61.2938903
   6.6241673  60.0184913  60.5038903   7.0691673  60.3294913  61.7628903
   6.4871673  60.2274913  61.2468903   7.0591673  60.5894913  56.4148903
   7.3401673  61.3774913  56.6638903   6.2831673  60.7544913  56.0518903
   6.9861673  60.7304913  56.3978903  13.8891673  56.9314913  67.0418903
  14.6461673  57.0034913  66.6138903  13.9521673  56.1584913  67.4408903
  14.0101673  56.8284913  67.0368903   8.7801673  68.5634913  71.4808903
   8.7461673  68.9454913  72.2648903   9.6341673  68.5214913  71.3098903
   8.9011673  68.6134913  71.5718903   5.9181673  68.7604913  56.2308903
   5.7371673  69.3054913  56.8878903   6.6841673  69.0504913  55.9298903
   6.0041673  68.8844913  56.2838903   9.4251673  56.6564913  57.2848903
   9.9651673  55.9744913  57.3608903   9.4871673  57.0544913  58.0588903
   9.5141673  56.6144913  57.4108903   6.6831673  59.0324913  58.5988903
   6.1751673  58.3704913  58.3448903   6.7351673  59.5364913  57.8888903
   6.6161673  59.0094913  58.4568903   6.6831673  55.9734913  58.4898903
   6.2281673  55.5714913  57.8638903   7.4561673  56.1284913  58.1148903
   6.7301673  55.9374913  58.3418903   5.2811673  58.3404913  63.0118903
   5.3551673  58.9084913  62.3538903   5.4021673  58.8324913  63.7218903
   5.3091673  58.4974913  63.0198903  10.5061673  68.1754913  61.4238903
  11.2071673  67.6934913  61.6128903   9.8461673  67.6064913  61.4688903
  10.5121673  68.0204913  61.4578903   2.8451673  64.5964913  65.3848903
   3.0171673  64.3864913  66.2138903   2.1901673  64.0624913  65.1688903
   2.7741673  64.4864913  65.4758903   9.0731673  58.5104913  68.8998903
   8.9781673  58.8294913  69.7058903   8.4801673  57.8714913  68.8618903
   8.9711673  58.4624913  69.0138903   3.5951673  64.5344913  67.9748903
   3.6481673  65.3814913  68.1768903   3.3101673  64.1644913  68.7118903
   3.5611673  64.6044913  68.1128903   9.7721673  65.2294913  67.1048903
   9.2581673  64.8174913  67.6758903   9.6461673  66.0734913  67.2858903
   9.6781673  65.2934913  67.2158903  10.3291673  54.4544913  61.7358903
  10.3781673  54.1364913  62.5468903  10.6521673  53.8104913  61.2428903
  10.3841673  54.3124913  61.7828903  12.7931673  58.6904913  70.0438903
  13.5651673  58.4654913  70.3808903  12.3181673  58.9074913  70.7438903
  12.8371673  58.6894913  70.1968903  13.0251673  65.6684913  57.2318903
  13.1441673  65.3814913  58.0468903  13.8321673  65.6894913  56.9018903
  13.1611673  65.6294913  57.3038903  10.9201673  62.2054913  56.8168903
  10.7001673  62.9364913  56.3948903  10.4721673  62.2564913  57.5638903
  10.8211673  62.3204913  56.8648903   2.5291673  65.4074913  60.7978903
   3.2421673  65.9024913  60.8878903   2.7511673  64.8404913  60.1718903
   2.6671673  65.3964913  60.7188903  15.1071673  57.0664913  56.2698903
  14.4451673  56.4984913  56.2928903  14.9141673  57.5784913  55.5898903
  14.9811673  57.0584913  56.1728903   4.3321673  60.7604913  74.2138903
   3.8481673  61.3374913  74.6558903   4.3041673  61.0554913  73.3928903
   4.2561673  60.8894913  74.1578903  15.4301673  61.4444913  68.8258903
  15.6451673  60.6444913  68.5498903  14.5801673  61.5044913  68.6368903
  15.3361673  61.3354913  68.7568903  13.1091673  56.6244913  58.5488903
  13.8551673  56.2174913  58.7478903  13.3721673  57.3394913  58.1238903
  13.2581673  56.6704913  58.5158903   7.0521673  69.1104913  63.1248903
   6.5291673  69.7444913  62.8318903   7.3621673  68.7464913  62.3958903
   7.0201673  69.1504913  62.9738903   9.5631673  58.9124913  63.6218903
   9.9071673  59.0644913  64.4088903   9.1101673  58.1744913  63.7348903
   9.5471673  58.8254913  63.7548903   4.0391673  58.1324913  58.0788903
   4.0371673  58.0154913  57.2138903   3.8581673  58.9804913  58.1708903
   4.0121673  58.2404913  57.9648903   1.7771673  68.0844913  62.7108903
   1.9031673  68.9274913  62.8978903   2.4451673  67.6854913  63.1068903
   1.8951673  68.1504913  62.7968903  10.8841673  60.2444913  66.1758903
  10.2221673  60.5724913  66.6388903  11.0711673  60.8784913  65.6068903
  10.8141673  60.3864913  66.1598903   7.5291673  56.1504913  69.6048903
   7.6781673  55.3254913  69.3618903   7.9081673  56.2054913  70.3888903
   7.6071673  56.0364913  69.6848903   9.0771673  58.2134913  59.6868903
   9.5671673  58.9304913  59.6098903   8.2871673  58.4744913  59.4238903
   9.0331673  58.3574913  59.6368903  10.3911673  66.0914913  71.5968903
  10.8751673  66.8094913  71.6948903  10.7851673  65.6644913  70.9458903
  10.5211673  66.1344913  71.5148903   4.6871673  68.9364913  72.7738903
   5.0411673  68.7584913  73.5508903   4.2511673  68.2074913  72.5748903
   4.6751673  68.8024913  72.8598903   5.6591673  59.6834913  65.4118903
   6.1391673  60.3824913  65.6198903   6.0321673  59.0364913  65.8628903
   5.7851673  59.6914913  65.5088903   7.8481673  62.8524913  57.6858903
   7.8401673  63.5744913  57.1958903   7.2091673  62.9874913  58.2628903
   7.7531673  62.9794913  57.6988903  12.8201673  66.7224913  61.6668903
  13.1761673  66.3724913  62.3818903  12.8121673  66.0614913  61.0968903
  12.8721673  66.5724913  61.6878903   8.8781673  66.6394913  64.9108903
   8.0811673  66.8634913  65.1848903   9.1361673  66.0454913  65.4958903
   8.7981673  66.5844913  65.0378903   2.4411673  55.1944913  57.3468903
   2.5381673  55.0874913  58.2078903   1.7331673  55.7004913  57.2818903
   2.3511673  55.2534913  57.4648903  12.1381673  64.6374913  69.7568903
  12.1931673  64.7624913  68.8948903  12.8911673  64.9574913  70.0588903
  12.2571673  64.7024913  69.6738903  13.1701673  54.9354913  72.7438903
  12.5331673  54.5354913  72.3018903  13.1961673  54.5044913  73.5018903
  13.0801673  54.8134913  72.7898903   7.8691673  64.4434913  69.3568903
   7.7141673  65.0534913  69.9608903   8.4031673  63.8854913  69.7628903
   7.9251673  64.4514913  69.5058903   6.2531673  62.8434913  60.0148903
   6.3121673  63.4934913  60.5938903   6.0641673  62.1474913  60.5058903
   6.2341673  62.8364913  60.1728903  11.4791673  67.1724913  65.8838903
  11.0001673  67.4704913  65.2178903  11.1231673  66.3964913  66.0618903
  11.3561673  67.1014913  65.8118903   5.4761673  64.8904913  64.4458903
   4.6291673  64.6964913  64.5268903   5.8001673  64.7254913  65.2388903
   5.3981673  64.8374913  64.5748903   2.5541673  59.7544913  63.4968903
   3.4001673  59.5644913  63.5948903   2.1841673  58.9774913  63.3588903
   2.6241673  59.6114913  63.4908903  12.4101673  64.1144913  67.0028903
  12.4031673  63.3384913  67.4008903  11.5691673  64.3484913  66.9958903
  12.2851673  64.0344913  67.0608903  13.6661673  64.1854913  64.4398903
  13.3801673  64.5864913  65.1598903  14.5261673  64.1234913  64.5668903
  13.7511673  64.2354913  64.5648903   3.3551673  60.9874913  58.3478903
   3.6271673  61.8134913  58.4148903   2.4921673  61.0624913  58.2518903
   3.2681673  61.1204913  58.3428903  11.3281673  58.1094913  72.9798903
  10.8031673  58.5684913  73.5038903  10.9671673  57.3144913  72.9738903
  11.1971673  58.0594913  73.0558903  14.7971673  69.8184913  64.9688903
  15.0871673  70.0754913  64.1878903  15.4921673  69.9144913  65.4878903
  14.9431673  69.8704913  64.9298903   9.8201673  61.6784913  73.0558903
   9.8931673  61.7824913  73.9188903   9.1861673  62.2364913  72.8348903
   9.7371673  61.7764913  73.1508903  12.0881673  61.9974913  71.4208903
  12.4071673  62.7834913  71.6238903  11.7181673  61.7274913  72.1638903
  12.0811673  62.0734913  71.5608903  11.4021673  68.4214913  56.9508903
  11.7361673  67.6154913  56.9858903  10.6471673  68.3494913  57.3808903
  11.3401673  68.2914913  57.0198903  11.8841673  60.2554913  62.6098903
  11.1391673  59.9324913  62.9278903  11.8861673  61.0814913  62.8898903
  11.7741673  60.3294913  62.6978903  14.7861673  62.5394913  74.1558903
  14.7341673  62.1984913  73.3548903  15.5231673  63.0064913  74.1338903
  14.8871673  62.5584913  74.0338903  14.3241673  66.2154913  70.3618903
  14.9521673  65.6664913  70.1058903  14.2631673  66.7804913  69.6998903
  14.4081673  66.2184913  70.2258903   8.7761673  66.2964913  56.3538903
   9.4601673  65.7824913  56.1848903   8.3591673  66.3424913  55.5888903
   8.8151673  66.2274913  56.2158903   3.4581673  67.4464913  67.6578903
   3.1601673  68.0384913  68.2248903   3.5131673  67.8884913  66.9088903
   3.4221673  67.5994913  67.6308903  10.7961673  56.5854913  70.0708903
  11.5401673  57.0374913  70.0078903  10.2301673  57.0554913  69.6018903
  10.8231673  56.7224913  69.9928903   5.9741673  63.8694913  67.1488903
   6.4501673  64.2434913  67.7768903   5.1511673  64.0034913  67.4078903
   5.9231673  63.9444913  67.2798903   2.6841673  59.4724913  69.8898903
   2.8451673  58.7284913  70.3168903   2.6391673  59.2234913  69.0548903
   2.7011673  59.3254913  69.8298903  12.0811673  54.5654913  67.7408903
  11.8011673  55.3904913  67.6968903  12.7971673  54.6184913  68.2368903
  12.1461673  54.6954913  67.8078903   4.4361673  55.2804913  69.7698903
   5.1411673  55.6004913  69.3678903   4.6771673  54.4734913  69.9968903
   4.5751673  55.2084913  69.7438903   3.4211673  69.4904913  65.7658903
   2.7971673  70.0724913  65.5838903   3.6691673  69.2044913  64.9798903
   3.3651673  69.5344913  65.6228903   7.7301673  66.1244913  72.7548903
   8.4871673  66.4104913  72.4288903   7.1831673  66.1764913  72.0768903
   7.7611673  66.1744913  72.6058903  11.6391673  68.6744913  71.2588903
  11.9851673  68.9444913  72.0128903  11.9331673  69.2564913  70.6788903
  11.7341673  68.8004913  71.2848903  13.5021673  60.8204913  56.5978903
  13.8801673  61.4974913  56.1978903  12.6601673  61.0444913  56.6288903
  13.4331673  60.9534913  56.5428903   5.0151673  64.2664913  55.6808903
   4.2101673  64.0894913  55.3958903   4.9821673  65.1174913  55.8728903
   4.8911673  64.3654913  55.6678903   8.9611673  59.4354913  71.4228903
   8.3131673  59.9054913  71.7708903   9.5261673  59.3464913  72.0818903
   8.9491673  59.4914913  71.5718903   8.6491673  60.9724913  67.7208903
   8.9511673  61.3924913  68.4238903   8.6851673  60.1324913  67.9528903
   8.6991673  60.9104913  67.8588903  11.1971673  60.4194913  59.9728903
  11.4041673  60.2184913  60.7968903  11.9531673  60.6874913  59.6308903
  11.3391673  60.4294913  60.0438903   4.4921673  55.3184913  65.8778903
   3.6661673  55.1694913  66.1148903   4.4521673  55.3534913  65.0068903
   4.3641673  55.3014913  65.7838903  12.2191673  56.5024913  61.4468903
  11.5051673  56.0314913  61.6178903  12.0571673  56.8434913  60.6608903
  12.0901673  56.4834913  61.3558903  12.6621673  64.4464913  59.8268903
  13.1381673  63.7174913  59.7788903  11.8411673  64.1604913  59.7508903
  12.6111673  64.2964913  59.8078903   6.1331673  66.3584913  70.6658903
   5.3381673  66.2944913  71.0168903   6.2041673  67.2054913  70.4708903
   6.0261673  66.4734913  70.6888903   8.8781673  65.6134913  62.1818903
   8.9541673  65.9544913  62.9808903   9.0471673  64.7664913  62.3028903
   8.9141673  65.5384913  62.3178903   6.4001673  64.8874913  61.7468903
   6.1021673  64.5724913  62.5038903   7.0951673  65.3604913  61.9818903
   6.4591673  64.9104913  61.8938903   6.6221673  69.0054913  69.7738903
   7.3091673  68.8914913  70.2988903   6.7561673  69.7964913  69.4298903
   6.7431673  69.1054913  69.8008903  14.7981673  61.6144913  71.5848903
  13.9431673  61.4924913  71.7108903  14.9511673  61.2194913  70.8218903
  14.6941673  61.5374913  71.4908903   9.3111673  62.2794913  70.1608903
   9.0561673  61.5604913  70.5828903  10.1321673  62.3954913  70.4308903
   9.3951673  62.1904913  70.2628903   7.2451673  63.4694913  73.3478903
   7.5681673  64.1554913  72.9158903   6.5411673  63.7924913  73.7498903
   7.1881673  63.6184913  73.3428903   7.0301673  66.9334913  67.2068903
   6.3361673  67.3354913  67.5498903   7.7071673  67.3664913  67.5458903
   7.0271673  67.0564913  67.3078903  12.4071673  69.5264913  73.7868903
  13.1831673  69.1364913  73.8698903  11.9381673  69.1904913  74.4418903
  12.4521673  69.4194913  73.8958903  13.4321673  61.5594913  59.2688903
  13.5351673  61.5014913  58.4048903  14.1731673  61.2274913  59.5868903
  13.5571673  61.5024913  59.1878903   7.3521673  68.5244913  60.3758903
   7.1471673  69.3574913  60.2168903   6.5771673  68.1424913  60.4978903
   7.2071673  68.5914913  60.3708903  12.5341673  61.7054913  68.6248903
  12.5321673  60.8424913  68.7488903  12.6011673  62.0294913  69.4318903
  12.5441673  61.6254913  68.7618903   8.4131673  56.5054913  72.4068903
   8.5051673  57.2174913  72.9008903   7.7761673  56.0604913  72.8038903
   8.3321673  56.5444913  72.5388903   7.4071673  56.6954913  63.2608903
   6.7071673  57.2134913  63.2048903   7.4451673  56.3154913  62.4768903
   7.3091673  56.7164913  63.1368903   2.7141673  68.7864913  56.7848903
   3.1551673  68.8664913  57.5328903   1.9091673  68.5704913  57.0428903
   2.6601673  68.7664913  56.9338903  11.0051673  57.2114913  66.0608903
  11.8601673  57.3104913  66.2058903  10.6361673  57.7644913  66.6258903
  11.0771673  57.3084913  66.1658903   2.0331673  63.4374913  70.4378903
   1.6371673  64.2114913  70.5128903   1.6271673  63.0644913  69.7618903
   1.9151673  63.4964913  70.3488903  11.3091673  62.4914913  64.5518903
  11.9751673  63.0324913  64.7118903  10.9641673  62.8024913  63.8128903
  11.3561673  62.6174913  64.4668903   2.8621673  66.1014913  56.1288903
   2.0441673  65.8334913  56.2688903   2.8341673  66.9534913  56.3138903
   2.7371673  66.1884913  56.1768903   2.4621673  56.4144913  67.8878903
   1.5981673  56.4984913  67.9678903   2.6821673  55.9004913  68.5568903
   2.3671673  56.3514913  67.9988903  14.4801673  55.0494913  69.2168903
  14.4281673  55.0054913  70.0868903  15.1671673  54.5464913  69.0268903
  14.5741673  54.9694913  69.3168903   6.5651673  57.1624913  66.2618903
   5.8281673  56.7084913  66.3748903   7.1361673  56.7604913  66.7848903
   6.5401673  57.0354913  66.3558903   9.2971673  68.0104913  68.0498903
   9.5031673  68.3114913  68.8418903   9.2361673  68.7324913  67.5648903
   9.3181673  68.1614913  68.0948903   4.0681673  61.4914913  71.4658903
   3.7461673  60.9154913  70.8958903   3.7091673  62.2464913  71.2198903
   3.9681673  61.5174913  71.3458903   4.8641673  54.7434913  56.0928903
   4.9421673  54.9904913  55.2598903   4.1211673  55.1204913  56.3508903
   4.7661673  54.8354913  56.0078903  14.1091673  66.6494913  67.5078903
  14.0771673  65.7874913  67.3728903  13.4161673  66.9514913  67.0738903
  14.0021673  66.5664913  67.4238903  12.2141673  69.9094913  66.3048903
  12.7411673  69.8264913  65.6138903  11.8231673  69.1314913  66.3588903
  12.2341673  69.7824913  66.2108903   8.7281673  55.3534913  65.5128903
   9.3981673  55.8974913  65.6398903   8.2251673  55.7774913  64.9398903
   8.7531673  55.4964913  65.4468903   8.0871673  61.1614913  63.0058903
   8.6381673  60.5544913  63.3058903   7.6621673  61.4244913  63.7208903
   8.1061673  61.1104913  63.1548903  10.0571673  62.9924913  59.5678903
  10.1251673  62.1424913  59.7488903   9.2341673  63.0784913  59.2898903
   9.9451673  62.8794913  59.5538903   3.9761673  63.8834913  58.5058903
   4.0761673  64.0224913  57.6508903   4.7941673  63.8234913  58.8018903
   4.1111673  63.8944913  58.4228903  13.3311673  64.3654913  72.7188903
  13.9651673  64.1954913  73.2928903  13.7481673  64.7684913  72.0668903
  13.4861673  64.4004913  72.7078903   9.2111673  68.2124913  58.3078903
   8.9601673  68.0844913  59.1338903   8.8941673  67.5174913  57.8868903
   9.1271673  68.0914913  58.3678903  13.9561673  58.9294913  73.4568903
  13.7601673  59.5734913  74.0118903  13.2341673  58.4394913  73.4488903
  13.8211673  58.9524913  73.5378903  13.8551673  59.8704913  66.4278903
  13.0221673  60.1204913  66.3558903  13.7991673  59.0304913  66.6568903
  13.7241673  59.7834913  66.4508903   3.1151673  56.8584913  71.6218903
   3.3491673  56.2824913  71.0088903   2.2731673  56.6774913  71.7628903
   3.0251673  56.7464913  71.5518903  10.7421673  64.4764913  74.0738903
  11.6131673  64.4404913  74.0378903  10.5231673  64.8964913  73.3418903
  10.8391673  64.5324913  73.9608903   6.0971673  66.4204913  57.7378903
   6.8141673  66.0734913  57.3818903   6.0631673  67.2204913  57.3898903
   6.1981673  66.4874913  57.6338903   7.5061673  55.0614913  41.9766493
   7.2611673  55.5494913  41.2966493   8.3691673  54.9884913  41.8766493
   7.5971673  55.1224913  41.8616493   7.3151673  61.9774913  46.6476493
   6.7911673  62.5734913  47.0106493   7.7121673  61.6094913  47.3316493
   7.2961673  62.0114913  46.8026493  13.4591673  69.4184913  39.6186493
  14.1601673  68.8994913  39.6146493  12.8721673  68.9734913  39.1496493
  13.4761673  69.2754913  39.5486493   9.9861673  63.0444913  43.3236493
  10.0661673  63.0484913  42.4546493   9.4021673  62.4124913  43.4726493
   9.9111673  62.9514913  43.2176493   3.9751673  56.1484913  41.1316493
   3.9051673  56.8254913  40.5856493   4.7161673  55.7604913  40.8826493
   4.0741673  56.1914913  41.0136493   3.6981673  66.3774913  53.4256493
   3.4621673  66.3744913  54.2656493   2.9501673  66.2294913  53.0016493
   3.5521673  66.3544913  53.4866493   3.0781673  58.9834913  47.9076493
   3.7561673  59.0014913  47.3586493   3.0331673  58.1474913  48.1526493
   3.1711673  58.8624913  47.8626493   4.7751673  67.4544913  45.1936493
   5.1231673  66.6554913  45.2236493   5.4401673  67.9584913  44.9386493
   4.9251673  67.4104913  45.1606493   4.8321673  66.9034913  41.4046493
   5.1631673  66.2594913  41.8906493   5.0721673  66.6924913  40.5936493
   4.9161673  66.7774913  41.3566493   6.8001673  61.0344913  52.7436493
   5.9521673  60.9354913  52.5656493   6.8291673  61.7794913  53.1976493
   6.6791673  61.1304913  52.7846493  11.3581673  53.9944913  51.8576493
  11.2001673  54.7634913  51.4756493  10.5861673  53.7744913  52.2016493
  11.2201673  54.0754913  51.8526493   4.1471673  55.7094913  44.0726493
   4.2201673  56.5694913  44.2016493   4.1091673  55.6344913  43.2046493
   4.1521673  55.8254913  43.9636493   8.8201673  58.6354913  36.3716493
   8.3701673  59.3164913  36.6786493   8.9341673  58.1314913  37.0746493
   8.7711673  58.6614913  36.5206493   2.7761673  68.6884913  40.9536493
   2.1971673  68.4134913  41.5456493   3.4001673  68.0794913  40.9786493
   2.7831673  68.5584913  41.0446493   3.3611673  58.0844913  55.3626493
   3.4781673  57.6304913  54.6266493   3.6491673  58.8824913  55.1596493
   3.4211673  58.1354913  55.2236493  14.2141673  58.6084913  42.6666493
  13.8681673  59.2864913  43.0926493  13.5781673  58.0104913  42.6826493
  14.0691673  58.6204913  42.7316493   5.7431673  55.3244913  53.5146493
   5.9211673  54.5154913  53.2396493   5.6001673  55.7654913  52.7756493
   5.7481673  55.2704913  53.3646493   6.3371673  60.2504913  42.2876493
   6.6241673  60.0184913  41.4976493   7.0691673  60.3294913  42.7566493
   6.4871673  60.2274913  42.2406493   7.0591673  60.5894913  37.4086493
   7.3401673  61.3774913  37.6576493   6.2831673  60.7544913  37.0456493
   6.9861673  60.7304913  37.3916493  13.8891673  56.9314913  48.0356493
  14.6461673  57.0034913  47.6076493  13.9521673  56.1584913  48.4346493
  14.0101673  56.8284913  48.0306493   8.7801673  68.5634913  52.4746493
   8.7461673  68.9454913  53.2586493   9.6341673  68.5214913  52.3036493
   8.9011673  68.6134913  52.5656493   5.9181673  68.7604913  37.2246493
   5.7371673  69.3054913  37.8816493   6.6841673  69.0504913  36.9236493
   6.0041673  68.8844913  37.2776493   9.4251673  56.6564913  38.2786493
   9.9651673  55.9744913  38.3546493   9.4871673  57.0544913  39.0526493
   9.5141673  56.6144913  38.4046493   6.6831673  59.0324913  39.5926493
   6.1751673  58.3704913  39.3386493   6.7351673  59.5364913  38.8826493
   6.6161673  59.0094913  39.4506493   6.6831673  55.9734913  39.4836493
   6.2281673  55.5714913  38.8576493   7.4561673  56.1284913  39.1086493
   6.7301673  55.9374913  39.3356493   5.2811673  58.3404913  44.0056493
   5.3551673  58.9084913  43.3476493   5.4021673  58.8324913  44.7156493
   5.3091673  58.4974913  44.0136493  10.5061673  68.1754913  42.4176493
  11.2071673  67.6934913  42.6066493   9.8461673  67.6064913  42.4626493
  10.5121673  68.0204913  42.4516493   2.8451673  64.5964913  46.3786493
   3.0171673  64.3864913  47.2076493   2.1901673  64.0624913  46.1626493
   2.7741673  64.4864913  46.4696493   9.0731673  58.5104913  49.8936493
   8.9781673  58.8294913  50.6996493   8.4801673  57.8714913  49.8556493
   8.9711673  58.4624913  50.0076493   3.5951673  64.5344913  48.9686493
   3.6481673  65.3814913  49.1706493   3.3101673  64.1644913  49.7056493
   3.5611673  64.6044913  49.1066493   9.7721673  65.2294913  48.0986493
   9.2581673  64.8174913  48.6696493   9.6461673  66.0734913  48.2796493
   9.6781673  65.2934913  48.2096493  10.3291673  54.4544913  42.7296493
  10.3781673  54.1364913  43.5406493  10.6521673  53.8104913  42.2366493
  10.3841673  54.3124913  42.7766493  12.7931673  58.6904913  51.0376493
  13.5651673  58.4654913  51.3746493  12.3181673  58.9074913  51.7376493
  12.8371673  58.6894913  51.1906493  13.0251673  65.6684913  38.2256493
  13.1441673  65.3814913  39.0406493  13.8321673  65.6894913  37.8956493
  13.1611673  65.6294913  38.2976493  10.9201673  62.2054913  37.8106493
  10.7001673  62.9364913  37.3886493  10.4721673  62.2564913  38.5576493
  10.8211673  62.3204913  37.8586493   2.5291673  65.4074913  41.7916493
   3.2421673  65.9024913  41.8816493   2.7511673  64.8404913  41.1656493
   2.6671673  65.3964913  41.7126493  15.1071673  57.0664913  37.2636493
  14.4451673  56.4984913  37.2866493  14.9141673  57.5784913  36.5836493
  14.9811673  57.0584913  37.1666493   4.3321673  60.7604913  55.2076493
   3.8481673  61.3374913  55.6496493   4.3041673  61.0554913  54.3866493
   4.2561673  60.8894913  55.1516493  15.4301673  61.4444913  49.8196493
  15.6451673  60.6444913  49.5436493  14.5801673  61.5044913  49.6306493
  15.3361673  61.3354913  49.7506493  13.1091673  56.6244913  39.5426493
  13.8551673  56.2174913  39.7416493  13.3721673  57.3394913  39.1176493
  13.2581673  56.6704913  39.5096493   7.0521673  69.1104913  44.1186493
   6.5291673  69.7444913  43.8256493   7.3621673  68.7464913  43.3896493
   7.0201673  69.1504913  43.9676493   9.5631673  58.9124913  44.6156493
   9.9071673  59.0644913  45.4026493   9.1101673  58.1744913  44.7286493
   9.5471673  58.8254913  44.7486493   4.0391673  58.1324913  39.0726493
   4.0371673  58.0154913  38.2076493   3.8581673  58.9804913  39.1646493
   4.0121673  58.2404913  38.9586493   1.7771673  68.0844913  43.7046493
   1.9031673  68.9274913  43.8916493   2.4451673  67.6854913  44.1006493
   1.8951673  68.1504913  43.7906493  10.8841673  60.2444913  47.1696493
  10.2221673  60.5724913  47.6326493  11.0711673  60.8784913  46.6006493
  10.8141673  60.3864913  47.1536493   7.5291673  56.1504913  50.5986493
   7.6781673  55.3254913  50.3556493   7.9081673  56.2054913  51.3826493
   7.6071673  56.0364913  50.6786493   9.0771673  58.2134913  40.6806493
   9.5671673  58.9304913  40.6036493   8.2871673  58.4744913  40.4176493
   9.0331673  58.3574913  40.6306493  10.3911673  66.0914913  52.5906493
  10.8751673  66.8094913  52.6886493  10.7851673  65.6644913  51.9396493
  10.5211673  66.1344913  52.5086493   4.6871673  68.9364913  53.7676493
   5.0411673  68.7584913  54.5446493   4.2511673  68.2074913  53.5686493
   4.6751673  68.8024913  53.8536493   5.6591673  59.6834913  46.4056493
   6.1391673  60.3824913  46.6136493   6.0321673  59.0364913  46.8566493
   5.7851673  59.6914913  46.5026493   7.8481673  62.8524913  38.6796493
   7.8401673  63.5744913  38.1896493   7.2091673  62.9874913  39.2566493
   7.7531673  62.9794913  38.6926493  12.8201673  66.7224913  42.6606493
  13.1761673  66.3724913  43.3756493  12.8121673  66.0614913  42.0906493
  12.8721673  66.5724913  42.6816493   8.8781673  66.6394913  45.9046493
   8.0811673  66.8634913  46.1786493   9.1361673  66.0454913  46.4896493
   8.7981673  66.5844913  46.0316493   2.4411673  55.1944913  38.3406493
   2.5381673  55.0874913  39.2016493   1.7331673  55.7004913  38.2756493
   2.3511673  55.2534913  38.4586493  12.1381673  64.6374913  50.7506493
  12.1931673  64.7624913  49.8886493  12.8911673  64.9574913  51.0526493
  12.2571673  64.7024913  50.6676493  13.1701673  54.9354913  53.7376493
  12.5331673  54.5354913  53.2956493  13.1961673  54.5044913  54.4956493
  13.0801673  54.8134913  53.7836493   7.8691673  64.4434913  50.3506493
   7.7141673  65.0534913  50.9546493   8.4031673  63.8854913  50.7566493
   7.9251673  64.4514913  50.4996493   6.2531673  62.8434913  41.0086493
   6.3121673  63.4934913  41.5876493   6.0641673  62.1474913  41.4996493
   6.2341673  62.8364913  41.1666493  11.4791673  67.1724913  46.8776493
  11.0001673  67.4704913  46.2116493  11.1231673  66.3964913  47.0556493
  11.3561673  67.1014913  46.8056493   5.4761673  64.8904913  45.4396493
   4.6291673  64.6964913  45.5206493   5.8001673  64.7254913  46.2326493
   5.3981673  64.8374913  45.5686493   2.5541673  59.7544913  44.4906493
   3.4001673  59.5644913  44.5886493   2.1841673  58.9774913  44.3526493
   2.6241673  59.6114913  44.4846493  12.4101673  64.1144913  47.9966493
  12.4031673  63.3384913  48.3946493  11.5691673  64.3484913  47.9896493
  12.2851673  64.0344913  48.0546493  13.6661673  64.1854913  45.4336493
  13.3801673  64.5864913  46.1536493  14.5261673  64.1234913  45.5606493
  13.7511673  64.2354913  45.5586493   3.3551673  60.9874913  39.3416493
   3.6271673  61.8134913  39.4086493   2.4921673  61.0624913  39.2456493
   3.2681673  61.1204913  39.3366493  11.3281673  58.1094913  53.9736493
  10.8031673  58.5684913  54.4976493  10.9671673  57.3144913  53.9676493
  11.1971673  58.0594913  54.0496493  14.7971673  69.8184913  45.9626493
  15.0871673  70.0754913  45.1816493  15.4921673  69.9144913  46.4816493
  14.9431673  69.8704913  45.9236493   9.8201673  61.6784913  54.0496493
   9.8931673  61.7824913  54.9126493   9.1861673  62.2364913  53.8286493
   9.7371673  61.7764913  54.1446493  12.0881673  61.9974913  52.4146493
  12.4071673  62.7834913  52.6176493  11.7181673  61.7274913  53.1576493
  12.0811673  62.0734913  52.5546493  11.4021673  68.4214913  37.9446493
  11.7361673  67.6154913  37.9796493  10.6471673  68.3494913  38.3746493
  11.3401673  68.2914913  38.0136493  11.8841673  60.2554913  43.6036493
  11.1391673  59.9324913  43.9216493  11.8861673  61.0814913  43.8836493
  11.7741673  60.3294913  43.6916493  14.7861673  62.5394913  55.1496493
  14.7341673  62.1984913  54.3486493  15.5231673  63.0064913  55.1276493
  14.8871673  62.5584913  55.0276493  14.3241673  66.2154913  51.3556493
  14.9521673  65.6664913  51.0996493  14.2631673  66.7804913  50.6936493
  14.4081673  66.2184913  51.2196493   8.7761673  66.2964913  37.3476493
   9.4601673  65.7824913  37.1786493   8.3591673  66.3424913  36.5826493
   8.8151673  66.2274913  37.2096493   3.4581673  67.4464913  48.6516493
   3.1601673  68.0384913  49.2186493   3.5131673  67.8884913  47.9026493
   3.4221673  67.5994913  48.6246493  10.7961673  56.5854913  51.0646493
  11.5401673  57.0374913  51.0016493  10.2301673  57.0554913  50.5956493
  10.8231673  56.7224913  50.9866493   5.9741673  63.8694913  48.1426493
   6.4501673  64.2434913  48.7706493   5.1511673  64.0034913  48.4016493
   5.9231673  63.9444913  48.2736493   2.6841673  59.4724913  50.8836493
   2.8451673  58.7284913  51.3106493   2.6391673  59.2234913  50.0486493
   2.7011673  59.3254913  50.8236493  12.0811673  54.5654913  48.7346493
  11.8011673  55.3904913  48.6906493  12.7971673  54.6184913  49.2306493
  12.1461673  54.6954913  48.8016493   4.4361673  55.2804913  50.7636493
   5.1411673  55.6004913  50.3616493   4.6771673  54.4734913  50.9906493
   4.5751673  55.2084913  50.7376493   3.4211673  69.4904913  46.7596493
   2.7971673  70.0724913  46.5776493   3.6691673  69.2044913  45.9736493
   3.3651673  69.5344913  46.6166493   7.7301673  66.1244913  53.7486493
   8.4871673  66.4104913  53.4226493   7.1831673  66.1764913  53.0706493
   7.7611673  66.1744913  53.5996493  11.6391673  68.6744913  52.2526493
  11.9851673  68.9444913  53.0066493  11.9331673  69.2564913  51.6726493
  11.7341673  68.8004913  52.2786493  13.5021673  60.8204913  37.5916493
  13.8801673  61.4974913  37.1916493  12.6601673  61.0444913  37.6226493
  13.4331673  60.9534913  37.5366493   5.0151673  64.2664913  36.6746493
   4.2101673  64.0894913  36.3896493   4.9821673  65.1174913  36.8666493
   4.8911673  64.3654913  36.6616493   8.9611673  59.4354913  52.4166493
   8.3131673  59.9054913  52.7646493   9.5261673  59.3464913  53.0756493
   8.9491673  59.4914913  52.5656493   8.6491673  60.9724913  48.7146493
   8.9511673  61.3924913  49.4176493   8.6851673  60.1324913  48.9466493
   8.6991673  60.9104913  48.8526493  11.1971673  60.4194913  40.9666493
  11.4041673  60.2184913  41.7906493  11.9531673  60.6874913  40.6246493
  11.3391673  60.4294913  41.0376493   4.4921673  55.3184913  46.8716493
   3.6661673  55.1694913  47.1086493   4.4521673  55.3534913  46.0006493
   4.3641673  55.3014913  46.7776493  12.2191673  56.5024913  42.4406493
  11.5051673  56.0314913  42.6116493  12.0571673  56.8434913  41.6546493
  12.0901673  56.4834913  42.3496493  12.6621673  64.4464913  40.8206493
  13.1381673  63.7174913  40.7726493  11.8411673  64.1604913  40.7446493
  12.6111673  64.2964913  40.8016493   6.1331673  66.3584913  51.6596493
   5.3381673  66.2944913  52.0106493   6.2041673  67.2054913  51.4646493
   6.0261673  66.4734913  51.6826493   8.8781673  65.6134913  43.1756493
   8.9541673  65.9544913  43.9746493   9.0471673  64.7664913  43.2966493
   8.9141673  65.5384913  43.3116493   6.4001673  64.8874913  42.7406493
   6.1021673  64.5724913  43.4976493   7.0951673  65.3604913  42.9756493
   6.4591673  64.9104913  42.8876493   6.6221673  69.0054913  50.7676493
   7.3091673  68.8914913  51.2926493   6.7561673  69.7964913  50.4236493
   6.7431673  69.1054913  50.7946493  14.7981673  61.6144913  52.5786493
  13.9431673  61.4924913  52.7046493  14.9511673  61.2194913  51.8156493
  14.6941673  61.5374913  52.4846493   9.3111673  62.2794913  51.1546493
   9.0561673  61.5604913  51.5766493  10.1321673  62.3954913  51.4246493
   9.3951673  62.1904913  51.2566493   7.2451673  63.4694913  54.3416493
   7.5681673  64.1554913  53.9096493   6.5411673  63.7924913  54.7436493
   7.1881673  63.6184913  54.3366493   7.0301673  66.9334913  48.2006493
   6.3361673  67.3354913  48.5436493   7.7071673  67.3664913  48.5396493
   7.0271673  67.0564913  48.3016493  12.4071673  69.5264913  54.7806493
  13.1831673  69.1364913  54.8636493  11.9381673  69.1904913  55.4356493
  12.4521673  69.4194913  54.8896493  13.4321673  61.5594913  40.2626493
  13.5351673  61.5014913  39.3986493  14.1731673  61.2274913  40.5806493
  13.5571673  61.5024913  40.1816493   7.3521673  68.5244913  41.3696493
   7.1471673  69.3574913  41.2106493   6.5771673  68.1424913  41.4916493
   7.2071673  68.5914913  41.3646493  12.5341673  61.7054913  49.6186493
  12.5321673  60.8424913  49.7426493  12.6011673  62.0294913  50.4256493
  12.5441673  61.6254913  49.7556493   8.4131673  56.5054913  53.4006493
   8.5051673  57.2174913  53.8946493   7.7761673  56.0604913  53.7976493
   8.3321673  56.5444913  53.5326493   7.4071673  56.6954913  44.2546493
   6.7071673  57.2134913  44.1986493   7.4451673  56.3154913  43.4706493
   7.3091673  56.7164913  44.1306493   2.7141673  68.7864913  37.7786493
   3.1551673  68.8664913  38.5266493   1.9091673  68.5704913  38.0366493
   2.6601673  68.7664913  37.9276493  11.0051673  57.2114913  47.0546493
  11.8601673  57.3104913  47.1996493  10.6361673  57.7644913  47.6196493
  11.0771673  57.3084913  47.1596493   2.0331673  63.4374913  51.4316493
   1.6371673  64.2114913  51.5066493   1.6271673  63.0644913  50.7556493
   1.9151673  63.4964913  51.3426493  11.3091673  62.4914913  45.5456493
  11.9751673  63.0324913  45.7056493  10.9641673  62.8024913  44.8066493
  11.3561673  62.6174913  45.4606493   2.8621673  66.1014913  37.1226493
   2.0441673  65.8334913  37.2626493   2.8341673  66.9534913  37.3076493
   2.7371673  66.1884913  37.1706493   2.4621673  56.4144913  48.8816493
   1.5981673  56.4984913  48.9616493   2.6821673  55.9004913  49.5506493
   2.3671673  56.3514913  48.9926493  14.4801673  55.0494913  50.2106493
  14.4281673  55.0054913  51.0806493  15.1671673  54.5464913  50.0206493
  14.5741673  54.9694913  50.3106493   6.5651673  57.1624913  47.2556493
   5.8281673  56.7084913  47.3686493   7.1361673  56.7604913  47.7786493
   6.5401673  57.0354913  47.3496493   9.2971673  68.0104913  49.0436493
   9.5031673  68.3114913  49.8356493   9.2361673  68.7324913  48.5586493
   9.3181673  68.1614913  49.0886493   4.0681673  61.4914913  52.4596493
   3.7461673  60.9154913  51.8896493   3.7091673  62.2464913  52.2136493
   3.9681673  61.5174913  52.3396493   4.8641673  54.7434913  37.0866493
   4.9421673  54.9904913  36.2536493   4.1211673  55.1204913  37.3446493
   4.7661673  54.8354913  37.0016493  14.1091673  66.6494913  48.5016493
  14.0771673  65.7874913  48.3666493  13.4161673  66.9514913  48.0676493
  14.0021673  66.5664913  48.4176493  12.2141673  69.9094913  47.2986493
  12.7411673  69.8264913  46.6076493  11.8231673  69.1314913  47.3526493
  12.2341673  69.7824913  47.2046493   8.7281673  55.3534913  46.5066493
   9.3981673  55.8974913  46.6336493   8.2251673  55.7774913  45.9336493
   8.7531673  55.4964913  46.4406493   8.0871673  61.1614913  43.9996493
   8.6381673  60.5544913  44.2996493   7.6621673  61.4244913  44.7146493
   8.1061673  61.1104913  44.1486493  10.0571673  62.9924913  40.5616493
  10.1251673  62.1424913  40.7426493   9.2341673  63.0784913  40.2836493
   9.9451673  62.8794913  40.5476493   3.9761673  63.8834913  39.4996493
   4.0761673  64.0224913  38.6446493   4.7941673  63.8234913  39.7956493
   4.1111673  63.8944913  39.4166493  13.3311673  64.3654913  53.7126493
  13.9651673  64.1954913  54.2866493  13.7481673  64.7684913  53.0606493
  13.4861673  64.4004913  53.7016493   9.2111673  68.2124913  39.3016493
   8.9601673  68.0844913  40.1276493   8.8941673  67.5174913  38.8806493
   9.1271673  68.0914913  39.3616493  13.9561673  58.9294913  54.4506493
  13.7601673  59.5734913  55.0056493  13.2341673  58.4394913  54.4426493
  13.8211673  58.9524913  54.5316493  13.8551673  59.8704913  47.4216493
  13.0221673  60.1204913  47.3496493  13.7991673  59.0304913  47.6506493
  13.7241673  59.7834913  47.4446493   3.1151673  56.8584913  52.6156493
   3.3491673  56.2824913  52.0026493   2.2731673  56.6774913  52.7566493
   3.0251673  56.7464913  52.5456493  10.7421673  64.4764913  55.0676493
  11.6131673  64.4404913  55.0316493  10.5231673  64.8964913  54.3356493
  10.8391673  64.5324913  54.9546493   6.0971673  66.4204913  38.7316493
   6.8141673  66.0734913  38.3756493   6.0631673  67.2204913  38.3836493
   6.1981673  66.4874913  38.6276493   7.5061673  55.0614913  22.9704083
   7.2611673  55.5494913  22.2904083   8.3691673  54.9884913  22.8704083
   7.5971673  55.1224913  22.8554083   7.3151673  61.9774913  27.6414083
   6.7911673  62.5734913  28.0044083   7.7121673  61.6094913  28.3254083
   7.2961673  62.0114913  27.7964083  13.4591673  69.4184913  20.6124083
  14.1601673  68.8994913  20.6084083  12.8721673  68.9734913  20.1434083
  13.4761673  69.2754913  20.5424083   9.9861673  63.0444913  24.3174083
  10.0661673  63.0484913  23.4484083   9.4021673  62.4124913  24.4664083
   9.9111673  62.9514913  24.2114083   3.9751673  56.1484913  22.1254083
   3.9051673  56.8254913  21.5794083   4.7161673  55.7604913  21.8764083
   4.0741673  56.1914913  22.0074083   3.6981673  66.3774913  34.4194083
   3.4621673  66.3744913  35.2594083   2.9501673  66.2294913  33.9954083
   3.5521673  66.3544913  34.4804083   3.0781673  58.9834913  28.9014083
   3.7561673  59.0014913  28.3524083   3.0331673  58.1474913  29.1464083
   3.1711673  58.8624913  28.8564083   4.7751673  67.4544913  26.1874083
   5.1231673  66.6554913  26.2174083   5.4401673  67.9584913  25.9324083
   4.9251673  67.4104913  26.1544083   4.8321673  66.9034913  22.3984083
   5.1631673  66.2594913  22.8844083   5.0721673  66.6924913  21.5874083
   4.9161673  66.7774913  22.3504083   6.8001673  61.0344913  33.7374083
   5.9521673  60.9354913  33.5594083   6.8291673  61.7794913  34.1914083
   6.6791673  61.1304913  33.7784083  11.3581673  53.9944913  32.8514083
  11.2001673  54.7634913  32.4694083  10.5861673  53.7744913  33.1954083
  11.2201673  54.0754913  32.8464083   4.1471673  55.7094913  25.0664083
   4.2201673  56.5694913  25.1954083   4.1091673  55.6344913  24.1984083
   4.1521673  55.8254913  24.9574083   8.8201673  58.6354913  17.3654083
   8.3701673  59.3164913  17.6724083   8.9341673  58.1314913  18.0684083
   8.7711673  58.6614913  17.5144083   2.7761673  68.6884913  21.9474083
   2.1971673  68.4134913  22.5394083   3.4001673  68.0794913  21.9724083
   2.7831673  68.5584913  22.0384083   3.3611673  58.0844913  36.3564083
   3.4781673  57.6304913  35.6204083   3.6491673  58.8824913  36.1534083
   3.4211673  58.1354913  36.2174083  14.2141673  58.6084913  23.6604083
  13.8681673  59.2864913  24.0864083  13.5781673  58.0104913  23.6764083
  14.0691673  58.6204913  23.7254083   5.7431673  55.3244913  34.5084083
   5.9211673  54.5154913  34.2334083   5.6001673  55.7654913  33.7694083
   5.7481673  55.2704913  34.3584083   6.3371673  60.2504913  23.2814083
   6.6241673  60.0184913  22.4914083   7.0691673  60.3294913  23.7504083
   6.4871673  60.2274913  23.2344083   7.0591673  60.5894913  18.4024083
   7.3401673  61.3774913  18.6514083   6.2831673  60.7544913  18.0394083
   6.9861673  60.7304913  18.3854083  13.8891673  56.9314913  29.0294083
  14.6461673  57.0034913  28.6014083  13.9521673  56.1584913  29.4284083
  14.0101673  56.8284913  29.0244083   8.7801673  68.5634913  33.4684083
   8.7461673  68.9454913  34.2524083   9.6341673  68.5214913  33.2974083
   8.9011673  68.6134913  33.5594083   5.9181673  68.7604913  18.2184083
   5.7371673  69.3054913  18.8754083   6.6841673  69.0504913  17.9174083
   6.0041673  68.8844913  18.2714083   9.4251673  56.6564913  19.2724083
   9.9651673  55.9744913  19.3484083   9.4871673  57.0544913  20.0464083
   9.5141673  56.6144913  19.3984083   6.6831673  59.0324913  20.5864083
   6.1751673  58.3704913  20.3324083   6.7351673  59.5364913  19.8764083
   6.6161673  59.0094913  20.4444083   6.6831673  55.9734913  20.4774083
   6.2281673  55.5714913  19.8514083   7.4561673  56.1284913  20.1024083
   6.7301673  55.9374913  20.3294083   5.2811673  58.3404913  24.9994083
   5.3551673  58.9084913  24.3414083   5.4021673  58.8324913  25.7094083
   5.3091673  58.4974913  25.0074083  10.5061673  68.1754913  23.4114083
  11.2071673  67.6934913  23.6004083   9.8461673  67.6064913  23.4564083
  10.5121673  68.0204913  23.4454083   2.8451673  64.5964913  27.3724083
   3.0171673  64.3864913  28.2014083   2.1901673  64.0624913  27.1564083
   2.7741673  64.4864913  27.4634083   9.0731673  58.5104913  30.8874083
   8.9781673  58.8294913  31.6934083   8.4801673  57.8714913  30.8494083
   8.9711673  58.4624913  31.0014083   3.5951673  64.5344913  29.9624083
   3.6481673  65.3814913  30.1644083   3.3101673  64.1644913  30.6994083
   3.5611673  64.6044913  30.1004083   9.7721673  65.2294913  29.0924083
   9.2581673  64.8174913  29.6634083   9.6461673  66.0734913  29.2734083
   9.6781673  65.2934913  29.2034083  10.3291673  54.4544913  23.7234083
  10.3781673  54.1364913  24.5344083  10.6521673  53.8104913  23.2304083
  10.3841673  54.3124913  23.7704083  12.7931673  58.6904913  32.0314083
  13.5651673  58.4654913  32.3684083  12.3181673  58.9074913  32.7314083
  12.8371673  58.6894913  32.1844083  13.0251673  65.6684913  19.2194083
  13.1441673  65.3814913  20.0344083  13.8321673  65.6894913  18.8894083
  13.1611673  65.6294913  19.2914083  10.9201673  62.2054913  18.8044083
  10.7001673  62.9364913  18.3824083  10.4721673  62.2564913  19.5514083
  10.8211673  62.3204913  18.8524083   2.5291673  65.4074913  22.7854083
   3.2421673  65.9024913  22.8754083   2.7511673  64.8404913  22.1594083
   2.6671673  65.3964913  22.7064083  15.1071673  57.0664913  18.2574083
  14.4451673  56.4984913  18.2804083  14.9141673  57.5784913  17.5774083
  14.9811673  57.0584913  18.1604083   4.3321673  60.7604913  36.2014083
   3.8481673  61.3374913  36.6434083   4.3041673  61.0554913  35.3804083
   4.2561673  60.8894913  36.1454083  15.4301673  61.4444913  30.8134083
  15.6451673  60.6444913  30.5374083  14.5801673  61.5044913  30.6244083
  15.3361673  61.3354913  30.7444083  13.1091673  56.6244913  20.5364083
  13.8551673  56.2174913  20.7354083  13.3721673  57.3394913  20.1114083
  13.2581673  56.6704913  20.5034083   7.0521673  69.1104913  25.1124083
   6.5291673  69.7444913  24.8194083   7.3621673  68.7464913  24.3834083
   7.0201673  69.1504913  24.9614083   9.5631673  58.9124913  25.6094083
   9.9071673  59.0644913  26.3964083   9.1101673  58.1744913  25.7224083
   9.5471673  58.8254913  25.7424083   4.0391673  58.1324913  20.0664083
   4.0371673  58.0154913  19.2014083   3.8581673  58.9804913  20.1584083
   4.0121673  58.2404913  19.9524083   1.7771673  68.0844913  24.6984083
   1.9031673  68.9274913  24.8854083   2.4451673  67.6854913  25.0944083
   1.8951673  68.1504913  24.7844083  10.8841673  60.2444913  28.1634083
  10.2221673  60.5724913  28.6264083  11.0711673  60.8784913  27.5944083
  10.8141673  60.3864913  28.1474083   7.5291673  56.1504913  31.5924083
   7.6781673  55.3254913  31.3494083   7.9081673  56.2054913  32.3764083
   7.6071673  56.0364913  31.6724083   9.0771673  58.2134913  21.6744083
   9.5671673  58.9304913  21.5974083   8.2871673  58.4744913  21.4114083
   9.0331673  58.3574913  21.6244083  10.3911673  66.0914913  33.5844083
  10.8751673  66.8094913  33.6824083  10.7851673  65.6644913  32.9334083
  10.5211673  66.1344913  33.5024083   4.6871673  68.9364913  34.7614083
   5.0411673  68.7584913  35.5384083   4.2511673  68.2074913  34.5624083
   4.6751673  68.8024913  34.8474083   5.6591673  59.6834913  27.3994083
   6.1391673  60.3824913  27.6074083   6.0321673  59.0364913  27.8504083
   5.7851673  59.6914913  27.4964083   7.8481673  62.8524913  19.6734083
   7.8401673  63.5744913  19.1834083   7.2091673  62.9874913  20.2504083
   7.7531673  62.9794913  19.6864083  12.8201673  66.7224913  23.6544083
  13.1761673  66.3724913  24.3694083  12.8121673  66.0614913  23.0844083
  12.8721673  66.5724913  23.6754083   8.8781673  66.6394913  26.8984083
   8.0811673  66.8634913  27.1724083   9.1361673  66.0454913  27.4834083
   8.7981673  66.5844913  27.0254083   2.4411673  55.1944913  19.3344083
   2.5381673  55.0874913  20.1954083   1.7331673  55.7004913  19.2694083
   2.3511673  55.2534913  19.4524083  12.1381673  64.6374913  31.7444083
  12.1931673  64.7624913  30.8824083  12.8911673  64.9574913  32.0464083
  12.2571673  64.7024913  31.6614083  13.1701673  54.9354913  34.7314083
  12.5331673  54.5354913  34.2894083  13.1961673  54.5044913  35.4894083
  13.0801673  54.8134913  34.7774083   7.8691673  64.4434913  31.3444083
   7.7141673  65.0534913  31.9484083   8.4031673  63.8854913  31.7504083
   7.9251673  64.4514913  31.4934083   6.2531673  62.8434913  22.0024083
   6.3121673  63.4934913  22.5814083   6.0641673  62.1474913  22.4934083
   6.2341673  62.8364913  22.1604083  11.4791673  67.1724913  27.8714083
  11.0001673  67.4704913  27.2054083  11.1231673  66.3964913  28.0494083
  11.3561673  67.1014913  27.7994083   5.4761673  64.8904913  26.4334083
   4.6291673  64.6964913  26.5144083   5.8001673  64.7254913  27.2264083
   5.3981673  64.8374913  26.5624083   2.5541673  59.7544913  25.4844083
   3.4001673  59.5644913  25.5824083   2.1841673  58.9774913  25.3464083
   2.6241673  59.6114913  25.4784083  12.4101673  64.1144913  28.9904083
  12.4031673  63.3384913  29.3884083  11.5691673  64.3484913  28.9834083
  12.2851673  64.0344913  29.0484083  13.6661673  64.1854913  26.4274083
  13.3801673  64.5864913  27.1474083  14.5261673  64.1234913  26.5544083
  13.7511673  64.2354913  26.5524083   3.3551673  60.9874913  20.3354083
   3.6271673  61.8134913  20.4024083   2.4921673  61.0624913  20.2394083
   3.2681673  61.1204913  20.3304083  11.3281673  58.1094913  34.9674083
  10.8031673  58.5684913  35.4914083  10.9671673  57.3144913  34.9614083
  11.1971673  58.0594913  35.0434083  14.7971673  69.8184913  26.9564083
  15.0871673  70.0754913  26.1754083  15.4921673  69.9144913  27.4754083
  14.9431673  69.8704913  26.9174083   9.8201673  61.6784913  35.0434083
   9.8931673  61.7824913  35.9064083   9.1861673  62.2364913  34.8224083
   9.7371673  61.7764913  35.1384083  12.0881673  61.9974913  33.4084083
  12.4071673  62.7834913  33.6114083  11.7181673  61.7274913  34.1514083
  12.0811673  62.0734913  33.5484083  11.4021673  68.4214913  18.9384083
  11.7361673  67.6154913  18.9734083  10.6471673  68.3494913  19.3684083
  11.3401673  68.2914913  19.0074083  11.8841673  60.2554913  24.5974083
  11.1391673  59.9324913  24.9154083  11.8861673  61.0814913  24.8774083
  11.7741673  60.3294913  24.6854083  14.7861673  62.5394913  36.1434083
  14.7341673  62.1984913  35.3424083  15.5231673  63.0064913  36.1214083
  14.8871673  62.5584913  36.0214083  14.3241673  66.2154913  32.3494083
  14.9521673  65.6664913  32.0934083  14.2631673  66.7804913  31.6874083
  14.4081673  66.2184913  32.2134083   8.7761673  66.2964913  18.3414083
   9.4601673  65.7824913  18.1724083   8.3591673  66.3424913  17.5764083
   8.8151673  66.2274913  18.2034083   3.4581673  67.4464913  29.6454083
   3.1601673  68.0384913  30.2124083   3.5131673  67.8884913  28.8964083
   3.4221673  67.5994913  29.6184083  10.7961673  56.5854913  32.0584083
  11.5401673  57.0374913  31.9954083  10.2301673  57.0554913  31.5894083
  10.8231673  56.7224913  31.9804083   5.9741673  63.8694913  29.1364083
   6.4501673  64.2434913  29.7644083   5.1511673  64.0034913  29.3954083
   5.9231673  63.9444913  29.2674083   2.6841673  59.4724913  31.8774083
   2.8451673  58.7284913  32.3044083   2.6391673  59.2234913  31.0424083
   2.7011673  59.3254913  31.8174083  12.0811673  54.5654913  29.7284083
  11.8011673  55.3904913  29.6844083  12.7971673  54.6184913  30.2244083
  12.1461673  54.6954913  29.7954083   4.4361673  55.2804913  31.7574083
   5.1411673  55.6004913  31.3554083   4.6771673  54.4734913  31.9844083
   4.5751673  55.2084913  31.7314083   3.4211673  69.4904913  27.7534083
   2.7971673  70.0724913  27.5714083   3.6691673  69.2044913  26.9674083
   3.3651673  69.5344913  27.6104083   7.7301673  66.1244913  34.7424083
   8.4871673  66.4104913  34.4164083   7.1831673  66.1764913  34.0644083
   7.7611673  66.1744913  34.5934083  11.6391673  68.6744913  33.2464083
  11.9851673  68.9444913  34.0004083  11.9331673  69.2564913  32.6664083
  11.7341673  68.8004913  33.2724083  13.5021673  60.8204913  18.5854083
  13.8801673  61.4974913  18.1854083  12.6601673  61.0444913  18.6164083
  13.4331673  60.9534913  18.5304083   5.0151673  64.2664913  17.6684083
   4.2101673  64.0894913  17.3834083   4.9821673  65.1174913  17.8604083
   4.8911673  64.3654913  17.6554083   8.9611673  59.4354913  33.4104083
   8.3131673  59.9054913  33.7584083   9.5261673  59.3464913  34.0694083
   8.9491673  59.4914913  33.5594083   8.6491673  60.9724913  29.7084083
   8.9511673  61.3924913  30.4114083   8.6851673  60.1324913  29.9404083
   8.6991673  60.9104913  29.8464083  11.1971673  60.4194913  21.9604083
  11.4041673  60.2184913  22.7844083  11.9531673  60.6874913  21.6184083
  11.3391673  60.4294913  22.0314083   4.4921673  55.3184913  27.8654083
   3.6661673  55.1694913  28.1024083   4.4521673  55.3534913  26.9944083
   4.3641673  55.3014913  27.7714083  12.2191673  56.5024913  23.4344083
  11.5051673  56.0314913  23.6054083  12.0571673  56.8434913  22.6484083
  12.0901673  56.4834913  23.3434083  12.6621673  64.4464913  21.8144083
  13.1381673  63.7174913  21.7664083  11.8411673  64.1604913  21.7384083
  12.6111673  64.2964913  21.7954083   6.1331673  66.3584913  32.6534083
   5.3381673  66.2944913  33.0044083   6.2041673  67.2054913  32.4584083
   6.0261673  66.4734913  32.6764083   8.8781673  65.6134913  24.1694083
   8.9541673  65.9544913  24.9684083   9.0471673  64.7664913  24.2904083
   8.9141673  65.5384913  24.3054083   6.4001673  64.8874913  23.7344083
   6.1021673  64.5724913  24.4914083   7.0951673  65.3604913  23.9694083
   6.4591673  64.9104913  23.8814083   6.6221673  69.0054913  31.7614083
   7.3091673  68.8914913  32.2864083   6.7561673  69.7964913  31.4174083
   6.7431673  69.1054913  31.7884083  14.7981673  61.6144913  33.5724083
  13.9431673  61.4924913  33.6984083  14.9511673  61.2194913  32.8094083
  14.6941673  61.5374913  33.4784083   9.3111673  62.2794913  32.1484083
   9.0561673  61.5604913  32.5704083  10.1321673  62.3954913  32.4184083
   9.3951673  62.1904913  32.2504083   7.2451673  63.4694913  35.3354083
   7.5681673  64.1554913  34.9034083   6.5411673  63.7924913  35.7374083
   7.1881673  63.6184913  35.3304083   7.0301673  66.9334913  29.1944083
   6.3361673  67.3354913  29.5374083   7.7071673  67.3664913  29.5334083
   7.0271673  67.0564913  29.2954083  12.4071673  69.5264913  35.7744083
  13.1831673  69.1364913  35.8574083  11.9381673  69.1904913  36.4294083
  12.4521673  69.4194913  35.8834083  13.4321673  61.5594913  21.2564083
  13.5351673  61.5014913  20.3924083  14.1731673  61.2274913  21.5744083
  13.5571673  61.5024913  21.1754083   7.3521673  68.5244913  22.3634083
   7.1471673  69.3574913  22.2044083   6.5771673  68.1424913  22.4854083
   7.2071673  68.5914913  22.3584083  12.5341673  61.7054913  30.6124083
  12.5321673  60.8424913  30.7364083  12.6011673  62.0294913  31.4194083
  12.5441673  61.6254913  30.7494083   8.4131673  56.5054913  34.3944083
   8.5051673  57.2174913  34.8884083   7.7761673  56.0604913  34.7914083
   8.3321673  56.5444913  34.5264083   7.4071673  56.6954913  25.2484083
   6.7071673  57.2134913  25.1924083   7.4451673  56.3154913  24.4644083
   7.3091673  56.7164913  25.1244083   2.7141673  68.7864913  18.7724083
   3.1551673  68.8664913  19.5204083   1.9091673  68.5704913  19.0304083
   2.6601673  68.7664913  18.9214083  11.0051673  57.2114913  28.0484083
  11.8601673  57.3104913  28.1934083  10.6361673  57.7644913  28.6134083
  11.0771673  57.3084913  28.1534083   2.0331673  63.4374913  32.4254083
   1.6371673  64.2114913  32.5004083   1.6271673  63.0644913  31.7494083
   1.9151673  63.4964913  32.3364083  11.3091673  62.4914913  26.5394083
  11.9751673  63.0324913  26.6994083  10.9641673  62.8024913  25.8004083
  11.3561673  62.6174913  26.4544083   2.8621673  66.1014913  18.1164083
   2.0441673  65.8334913  18.2564083   2.8341673  66.9534913  18.3014083
   2.7371673  66.1884913  18.1644083   2.4621673  56.4144913  29.8754083
   1.5981673  56.4984913  29.9554083   2.6821673  55.9004913  30.5444083
   2.3671673  56.3514913  29.9864083  14.4801673  55.0494913  31.2044083
  14.4281673  55.0054913  32.0744083  15.1671673  54.5464913  31.0144083
  14.5741673  54.9694913  31.3044083   6.5651673  57.1624913  28.2494083
   5.8281673  56.7084913  28.3624083   7.1361673  56.7604913  28.7724083
   6.5401673  57.0354913  28.3434083   9.2971673  68.0104913  30.0374083
   9.5031673  68.3114913  30.8294083   9.2361673  68.7324913  29.5524083
   9.3181673  68.1614913  30.0824083   4.0681673  61.4914913  33.4534083
   3.7461673  60.9154913  32.8834083   3.7091673  62.2464913  33.2074083
   3.9681673  61.5174913  33.3334083   4.8641673  54.7434913  18.0804083
   4.9421673  54.9904913  17.2474083   4.1211673  55.1204913  18.3384083
   4.7661673  54.8354913  17.9954083  14.1091673  66.6494913  29.4954083
  14.0771673  65.7874913  29.3604083  13.4161673  66.9514913  29.0614083
  14.0021673  66.5664913  29.4114083  12.2141673  69.9094913  28.2924083
  12.7411673  69.8264913  27.6014083  11.8231673  69.1314913  28.3464083
  12.2341673  69.7824913  28.1984083   8.7281673  55.3534913  27.5004083
   9.3981673  55.8974913  27.6274083   8.2251673  55.7774913  26.9274083
   8.7531673  55.4964913  27.4344083   8.0871673  61.1614913  24.9934083
   8.6381673  60.5544913  25.2934083   7.6621673  61.4244913  25.7084083
   8.1061673  61.1104913  25.1424083  10.0571673  62.9924913  21.5554083
  10.1251673  62.1424913  21.7364083   9.2341673  63.0784913  21.2774083
   9.9451673  62.8794913  21.5414083   3.9761673  63.8834913  20.4934083
   4.0761673  64.0224913  19.6384083   4.7941673  63.8234913  20.7894083
   4.1111673  63.8944913  20.4104083  13.3311673  64.3654913  34.7064083
  13.9651673  64.1954913  35.2804083  13.7481673  64.7684913  34.0544083
  13.4861673  64.4004913  34.6954083   9.2111673  68.2124913  20.2954083
   8.9601673  68.0844913  21.1214083   8.8941673  67.5174913  19.8744083
   9.1271673  68.0914913  20.3554083  13.9561673  58.9294913  35.4444083
  13.7601673  59.5734913  35.9994083  13.2341673  58.4394913  35.4364083
  13.8211673  58.9524913  35.5254083  13.8551673  59.8704913  28.4154083
  13.0221673  60.1204913  28.3434083  13.7991673  59.0304913  28.6444083
  13.7241673  59.7834913  28.4384083   3.1151673  56.8584913  33.6094083
   3.3491673  56.2824913  32.9964083   2.2731673  56.6774913  33.7504083
   3.0251673  56.7464913  33.5394083  10.7421673  64.4764913  36.0614083
  11.6131673  64.4404913  36.0254083  10.5231673  64.8964913  35.3294083
  10.8391673  64.5324913  35.9484083   6.0971673  66.4204913  19.7254083
   6.8141673  66.0734913  19.3694083   6.0631673  67.2204913  19.3774083
   6.1981673  66.4874913  19.6214083   7.5061673  55.0614913   3.9641673
   7.2611673  55.5494913   3.2841673   8.3691673  54.9884913   3.8641673
   7.5971673  55.1224913   3.8491673   7.3151673  61.9774913   8.6351673
   6.7911673  62.5734913   8.9981673   7.7121673  61.6094913   9.3191673
   7.2961673  62.0114913   8.7901673   9.9861673  63.0444913   5.3111673
  10.0661673  63.0484913   4.4421673   9.4021673  62.4124913   5.4601673
   9.9111673  62.9514913   5.2051673   3.9751673  56.1484913   3.1191673
   3.9051673  56.8254913   2.5731673   4.7161673  55.7604913   2.8701673
   4.0741673  56.1914913   3.0011673   3.6981673  66.3774913  15.4131673
   3.4621673  66.3744913  16.2531673   2.9501673  66.2294913  14.9891673
   3.5521673  66.3544913  15.4741673   3.0781673  58.9834913   9.8951673
   3.7561673  59.0014913   9.3461673   3.0331673  58.1474913  10.1401673
   3.1711673  58.8624913   9.8501673   4.7751673  67.4544913   7.1811673
   5.1231673  66.6554913   7.2111673   5.4401673  67.9584913   6.9261673
   4.9251673  67.4104913   7.1481673   4.8321673  66.9034913   3.3921673
   5.1631673  66.2594913   3.8781673   5.0721673  66.6924913   2.5811673
   4.9161673  66.7774913   3.3441673   6.8001673  61.0344913  14.7311673
   5.9521673  60.9354913  14.5531673   6.8291673  61.7794913  15.1851673
   6.6791673  61.1304913  14.7721673  11.3581673  53.9944913  13.8451673
  11.2001673  54.7634913  13.4631673  10.5861673  53.7744913  14.1891673
  11.2201673  54.0754913  13.8401673   4.1471673  55.7094913   6.0601673
   4.2201673  56.5694913   6.1891673   4.1091673  55.6344913   5.1921673
   4.1521673  55.8254913   5.9511673   2.7761673  68.6884913   2.9411673
   2.1971673  68.4134913   3.5331673   3.4001673  68.0794913   2.9661673
   2.7831673  68.5584913   3.0321673   3.3611673  58.0844913  17.3501673
   3.4781673  57.6304913  16.6141673   3.6491673  58.8824913  17.1471673
   3.4211673  58.1354913  17.2111673  14.2141673  58.6084913   4.6541673
  13.8681673  59.2864913   5.0801673  13.5781673  58.0104913   4.6701673
  14.0691673  58.6204913   4.7191673   5.7431673  55.3244913  15.5021673
   5.9211673  54.5154913  15.2271673   5.6001673  55.7654913  14.7631673
   5.7481673  55.2704913  15.3521673   6.3371673  60.2504913   4.2751673
   6.6241673  60.0184913   3.4851673   7.0691673  60.3294913   4.7441673
   6.4871673  60.2274913   4.2281673  13.8891673  56.9314913  10.0231673
  14.6461673  57.0034913   9.5951673  13.9521673  56.1584913  10.4221673
  14.0101673  56.8284913  10.0181673   8.7801673  68.5634913  14.4621673
   8.7461673  68.9454913  15.2461673   9.6341673  68.5214913  14.2911673
   8.9011673  68.6134913  14.5531673   5.2811673  58.3404913   5.9931673
   5.3551673  58.9084913   5.3351673   5.4021673  58.8324913   6.7031673
   5.3091673  58.4974913   6.0011673  10.5061673  68.1754913   4.4051673
  11.2071673  67.6934913   4.5941673   9.8461673  67.6064913   4.4501673
  10.5121673  68.0204913   4.4391673   2.8451673  64.5964913   8.3661673
   3.0171673  64.3864913   9.1951673   2.1901673  64.0624913   8.1501673
   2.7741673  64.4864913   8.4571673   9.0731673  58.5104913  11.8811673
   8.9781673  58.8294913  12.6871673   8.4801673  57.8714913  11.8431673
   8.9711673  58.4624913  11.9951673   3.5951673  64.5344913  10.9561673
   3.6481673  65.3814913  11.1581673   3.3101673  64.1644913  11.6931673
   3.5611673  64.6044913  11.0941673   9.7721673  65.2294913  10.0861673
   9.2581673  64.8174913  10.6571673   9.6461673  66.0734913  10.2671673
   9.6781673  65.2934913  10.1971673  10.3291673  54.4544913   4.7171673
  10.3781673  54.1364913   5.5281673  10.6521673  53.8104913   4.2241673
  10.3841673  54.3124913   4.7641673  12.7931673  58.6904913  13.0251673
  13.5651673  58.4654913  13.3621673  12.3181673  58.9074913  13.7251673
  12.8371673  58.6894913  13.1781673   2.5291673  65.4074913   3.7791673
   3.2421673  65.9024913   3.8691673   2.7511673  64.8404913   3.1531673
   2.6671673  65.3964913   3.7001673   4.3321673  60.7604913  17.1951673
   3.8481673  61.3374913  17.6371673   4.3041673  61.0554913  16.3741673
   4.2561673  60.8894913  17.1391673  15.4301673  61.4444913  11.8071673
  15.6451673  60.6444913  11.5311673  14.5801673  61.5044913  11.6181673
  15.3361673  61.3354913  11.7381673   7.0521673  69.1104913   6.1061673
   6.5291673  69.7444913   5.8131673   7.3621673  68.7464913   5.3771673
   7.0201673  69.1504913   5.9551673   9.5631673  58.9124913   6.6031673
   9.9071673  59.0644913   7.3901673   9.1101673  58.1744913   6.7161673
   9.5471673  58.8254913   6.7361673   1.7771673  68.0844913   5.6921673
   1.9031673  68.9274913   5.8791673   2.4451673  67.6854913   6.0881673
   1.8951673  68.1504913   5.7781673  10.8841673  60.2444913   9.1571673
  10.2221673  60.5724913   9.6201673  11.0711673  60.8784913   8.5881673
  10.8141673  60.3864913   9.1411673   7.5291673  56.1504913  12.5861673
   7.6781673  55.3254913  12.3431673   7.9081673  56.2054913  13.3701673
   7.6071673  56.0364913  12.6661673   9.0771673  58.2134913   2.6681673
   9.5671673  58.9304913   2.5911673   8.2871673  58.4744913   2.4051673
   9.0331673  58.3574913   2.6181673  10.3911673  66.0914913  14.5781673
  10.8751673  66.8094913  14.6761673  10.7851673  65.6644913  13.9271673
  10.5211673  66.1344913  14.4961673   4.6871673  68.9364913  15.7551673
   5.0411673  68.7584913  16.5321673   4.2511673  68.2074913  15.5561673
   4.6751673  68.8024913  15.8411673   5.6591673  59.6834913   8.3931673
   6.1391673  60.3824913   8.6011673   6.0321673  59.0364913   8.8441673
   5.7851673  59.6914913   8.4901673  12.8201673  66.7224913   4.6481673
  13.1761673  66.3724913   5.3631673  12.8121673  66.0614913   4.0781673
  12.8721673  66.5724913   4.6691673   8.8781673  66.6394913   7.8921673
   8.0811673  66.8634913   8.1661673   9.1361673  66.0454913   8.4771673
   8.7981673  66.5844913   8.0191673  12.1381673  64.6374913  12.7381673
  12.1931673  64.7624913  11.8761673  12.8911673  64.9574913  13.0401673
  12.2571673  64.7024913  12.6551673  13.1701673  54.9354913  15.7251673
  12.5331673  54.5354913  15.2831673  13.1961673  54.5044913  16.4831673
  13.0801673  54.8134913  15.7711673   7.8691673  64.4434913  12.3381673
   7.7141673  65.0534913  12.9421673   8.4031673  63.8854913  12.7441673
   7.9251673  64.4514913  12.4871673   6.2531673  62.8434913   2.9961673
   6.3121673  63.4934913   3.5751673   6.0641673  62.1474913   3.4871673
   6.2341673  62.8364913   3.1541673  11.4791673  67.1724913   8.8651673
  11.0001673  67.4704913   8.1991673  11.1231673  66.3964913   9.0431673
  11.3561673  67.1014913   8.7931673   5.4761673  64.8904913   7.4271673
   4.6291673  64.6964913   7.5081673   5.8001673  64.7254913   8.2201673
   5.3981673  64.8374913   7.5561673   2.5541673  59.7544913   6.4781673
   3.4001673  59.5644913   6.5761673   2.1841673  58.9774913   6.3401673
   2.6241673  59.6114913   6.4721673  12.4101673  64.1144913   9.9841673
  12.4031673  63.3384913  10.3821673  11.5691673  64.3484913   9.9771673
  12.2851673  64.0344913  10.0421673  13.6661673  64.1854913   7.4211673
  13.3801673  64.5864913   8.1411673  14.5261673  64.1234913   7.5481673
  13.7511673  64.2354913   7.5461673  11.3281673  58.1094913  15.9611673
  10.8031673  58.5684913  16.4851673  10.9671673  57.3144913  15.9551673
  11.1971673  58.0594913  16.0371673  14.7971673  69.8184913   7.9501673
  15.0871673  70.0754913   7.1691673  15.4921673  69.9144913   8.4691673
  14.9431673  69.8704913   7.9111673   9.8201673  61.6784913  16.0371673
   9.8931673  61.7824913  16.9001673   9.1861673  62.2364913  15.8161673
   9.7371673  61.7764913  16.1321673  12.0881673  61.9974913  14.4021673
  12.4071673  62.7834913  14.6051673  11.7181673  61.7274913  15.1451673
  12.0811673  62.0734913  14.5421673  11.8841673  60.2554913   5.5911673
  11.1391673  59.9324913   5.9091673  11.8861673  61.0814913   5.8711673
  11.7741673  60.3294913   5.6791673  14.7861673  62.5394913  17.1371673
  14.7341673  62.1984913  16.3361673  15.5231673  63.0064913  17.1151673
  14.8871673  62.5584913  17.0151673  14.3241673  66.2154913  13.3431673
  14.9521673  65.6664913  13.0871673  14.2631673  66.7804913  12.6811673
  14.4081673  66.2184913  13.2071673   3.4581673  67.4464913  10.6391673
   3.1601673  68.0384913  11.2061673   3.5131673  67.8884913   9.8901673
   3.4221673  67.5994913  10.6121673  10.7961673  56.5854913  13.0521673
  11.5401673  57.0374913  12.9891673  10.2301673  57.0554913  12.5831673
  10.8231673  56.7224913  12.9741673   5.9741673  63.8694913  10.1301673
   6.4501673  64.2434913  10.7581673   5.1511673  64.0034913  10.3891673
   5.9231673  63.9444913  10.2611673   2.6841673  59.4724913  12.8711673
   2.8451673  58.7284913  13.2981673   2.6391673  59.2234913  12.0361673
   2.7011673  59.3254913  12.8111673  12.0811673  54.5654913  10.7221673
  11.8011673  55.3904913  10.6781673  12.7971673  54.6184913  11.2181673
  12.1461673  54.6954913  10.7891673   4.4361673  55.2804913  12.7511673
   5.1411673  55.6004913  12.3491673   4.6771673  54.4734913  12.9781673
   4.5751673  55.2084913  12.7251673   3.4211673  69.4904913   8.7471673
   2.7971673  70.0724913   8.5651673   3.6691673  69.2044913   7.9611673
   3.3651673  69.5344913   8.6041673   7.7301673  66.1244913  15.7361673
   8.4871673  66.4104913  15.4101673   7.1831673  66.1764913  15.0581673
   7.7611673  66.1744913  15.5871673  11.6391673  68.6744913  14.2401673
  11.9851673  68.9444913  14.9941673  11.9331673  69.2564913  13.6601673
  11.7341673  68.8004913  14.2661673   8.9611673  59.4354913  14.4041673
   8.3131673  59.9054913  14.7521673   9.5261673  59.3464913  15.0631673
   8.9491673  59.4914913  14.5531673   8.6491673  60.9724913  10.7021673
   8.9511673  61.3924913  11.4051673   8.6851673  60.1324913  10.9341673
   8.6991673  60.9104913  10.8401673  11.1971673  60.4194913   2.9541673
  11.4041673  60.2184913   3.7781673  11.9531673  60.6874913   2.6121673
  11.3391673  60.4294913   3.0251673   4.4921673  55.3184913   8.8591673
   3.6661673  55.1694913   9.0961673   4.4521673  55.3534913   7.9881673
   4.3641673  55.3014913   8.7651673  12.2191673  56.5024913   4.4281673
  11.5051673  56.0314913   4.5991673  12.0571673  56.8434913   3.6421673
  12.0901673  56.4834913   4.3371673  12.6621673  64.4464913   2.8081673
  13.1381673  63.7174913   2.7601673  11.8411673  64.1604913   2.7321673
  12.6111673  64.2964913   2.7891673   6.1331673  66.3584913  13.6471673
   5.3381673  66.2944913  13.9981673   6.2041673  67.2054913  13.4521673
   6.0261673  66.4734913  13.6701673   8.8781673  65.6134913   5.1631673
   8.9541673  65.9544913   5.9621673   9.0471673  64.7664913   5.2841673
   8.9141673  65.5384913   5.2991673   6.4001673  64.8874913   4.7281673
   6.1021673  64.5724913   5.4851673   7.0951673  65.3604913   4.9631673
   6.4591673  64.9104913   4.8751673   6.6221673  69.0054913  12.7551673
   7.3091673  68.8914913  13.2801673   6.7561673  69.7964913  12.4111673
   6.7431673  69.1054913  12.7821673  14.7981673  61.6144913  14.5661673
  13.9431673  61.4924913  14.6921673  14.9511673  61.2194913  13.8031673
  14.6941673  61.5374913  14.4721673   9.3111673  62.2794913  13.1421673
   9.0561673  61.5604913  13.5641673  10.1321673  62.3954913  13.4121673
   9.3951673  62.1904913  13.2441673   7.2451673  63.4694913  16.3291673
   7.5681673  64.1554913  15.8971673   6.5411673  63.7924913  16.7311673
   7.1881673  63.6184913  16.3241673   7.0301673  66.9334913  10.1881673
   6.3361673  67.3354913  10.5311673   7.7071673  67.3664913  10.5271673
   7.0271673  67.0564913  10.2891673  12.4071673  69.5264913  16.7681673
  13.1831673  69.1364913  16.8511673  11.9381673  69.1904913  17.4231673
  12.4521673  69.4194913  16.8771673   7.3521673  68.5244913   3.3571673
   7.1471673  69.3574913   3.1981673   6.5771673  68.1424913   3.4791673
   7.2071673  68.5914913   3.3521673  12.5341673  61.7054913  11.6061673
  12.5321673  60.8424913  11.7301673  12.6011673  62.0294913  12.4131673
  12.5441673  61.6254913  11.7431673   8.4131673  56.5054913  15.3881673
   8.5051673  57.2174913  15.8821673   7.7761673  56.0604913  15.7851673
   8.3321673  56.5444913  15.5201673   7.4071673  56.6954913   6.2421673
   6.7071673  57.2134913   6.1861673   7.4451673  56.3154913   5.4581673
   7.3091673  56.7164913   6.1181673  11.0051673  57.2114913   9.0421673
  11.8601673  57.3104913   9.1871673  10.6361673  57.7644913   9.6071673
  11.0771673  57.3084913   9.1471673   2.0331673  63.4374913  13.4191673
   1.6371673  64.2114913  13.4941673   1.6271673  63.0644913  12.7431673
   1.9151673  63.4964913  13.3301673  11.3091673  62.4914913   7.5331673
  11.9751673  63.0324913   7.6931673  10.9641673  62.8024913   6.7941673
  11.3561673  62.6174913   7.4481673   2.4621673  56.4144913  10.8691673
   1.5981673  56.4984913  10.9491673   2.6821673  55.9004913  11.5381673
   2.3671673  56.3514913  10.9801673  14.4801673  55.0494913  12.1981673
  14.4281673  55.0054913  13.0681673  15.1671673  54.5464913  12.0081673
  14.5741673  54.9694913  12.2981673   6.5651673  57.1624913   9.2431673
   5.8281673  56.7084913   9.3561673   7.1361673  56.7604913   9.7661673
   6.5401673  57.0354913   9.3371673   9.2971673  68.0104913  11.0311673
   9.5031673  68.3114913  11.8231673   9.2361673  68.7324913  10.5461673
   9.3181673  68.1614913  11.0761673   4.0681673  61.4914913  14.4471673
   3.7461673  60.9154913  13.8771673   3.7091673  62.2464913  14.2011673
   3.9681673  61.5174913  14.3271673  14.1091673  66.6494913  10.4891673
  14.0771673  65.7874913  10.3541673  13.4161673  66.9514913  10.0551673
  14.0021673  66.5664913  10.4051673  12.2141673  69.9094913   9.2861673
  12.7411673  69.8264913   8.5951673  11.8231673  69.1314913   9.3401673
  12.2341673  69.7824913   9.1921673   8.7281673  55.3534913   8.4941673
   9.3981673  55.8974913   8.6211673   8.2251673  55.7774913   7.9211673
   8.7531673  55.4964913   8.4281673   8.0871673  61.1614913   5.9871673
   8.6381673  60.5544913   6.2871673   7.6621673  61.4244913   6.7021673
   8.1061673  61.1104913   6.1361673  10.0571673  62.9924913   2.5491673
  10.1251673  62.1424913   2.7301673   9.2341673  63.0784913   2.2711673
   9.9451673  62.8794913   2.5351673  13.3311673  64.3654913  15.7001673
  13.9651673  64.1954913  16.2741673  13.7481673  64.7684913  15.0481673
  13.4861673  64.4004913  15.6891673  13.9561673  58.9294913  16.4381673
  13.7601673  59.5734913  16.9931673  13.2341673  58.4394913  16.4301673
  13.8211673  58.9524913  16.5191673  13.8551673  59.8704913   9.4091673
  13.0221673  60.1204913   9.3371673  13.7991673  59.0304913   9.6381673
  13.7241673  59.7834913   9.4321673   3.1151673  56.8584913  14.6031673
   3.3491673  56.2824913  13.9901673   2.2731673  56.6774913  14.7441673
   3.0251673  56.7464913  14.5331673  10.7421673  64.4764913  17.0551673
  11.6131673  64.4404913  17.0191673  10.5231673  64.8964913  16.3231673
  10.8391673  64.5324913  16.9421673   7.5061673  36.5833833  79.9891313
   7.2611673  37.0713833  79.3091313   8.3691673  36.5103833  79.8891313
   7.5971673  36.6443833  79.8741313   7.3151673  43.4993833  84.6601313
   6.7911673  44.0953833  85.0231313   7.7121673  43.1313833  85.3441313
   7.2961673  43.5333833  84.8151313  13.4591673  50.9403833  77.6311313
  14.1601673  50.4213833  77.6271313  12.8721673  50.4953833  77.1621313
  13.4761673  50.7973833  77.5611313   9.9861673  44.5663833  81.3361313
  10.0661673  44.5703833  80.4671313   9.4021673  43.9343833  81.4851313
   9.9111673  44.4733833  81.2301313   3.9751673  37.6703833  79.1441313
   3.9051673  38.3473833  78.5981313   4.7161673  37.2823833  78.8951313
   4.0741673  37.7133833  79.0261313   3.0781673  40.5053833  85.9201313
   3.7561673  40.5233833  85.3711313   3.0331673  39.6693833  86.1651313
   3.1711673  40.3843833  85.8751313   3.6801673  51.0913833  88.7011313
   3.8181673  51.8513833  88.2941313   4.4711673  50.7263833  88.7281313
   3.8171673  51.1503833  88.6451313   4.7751673  48.9763833  83.2061313
   5.1231673  48.1773833  83.2361313   5.4401673  49.4803833  82.9511313
   4.9251673  48.9323833  83.1731313   4.8321673  48.4253833  79.4171313
   5.1631673  47.7813833  79.9031313   5.0721673  48.2143833  78.6061313
   4.9161673  48.2993833  79.3691313   4.1471673  37.2313833  82.0851313
   4.2201673  38.0913833  82.2141313   4.1091673  37.1563833  81.2171313
   4.1521673  37.3473833  81.9761313   8.8201673  40.1573833  74.3841313
   8.3701673  40.8383833  74.6911313   8.9341673  39.6533833  75.0871313
   8.7711673  40.1833833  74.5331313   2.7761673  50.2103833  78.9661313
   2.1971673  49.9353833  79.5581313   3.4001673  49.6013833  78.9911313
   2.7831673  50.0803833  79.0571313   8.9191673  52.4983833  76.4881313
   9.6461673  52.9703833  76.5901313   9.1481673  51.7043833  76.7681313
   9.0611673  52.4513833  76.5451313   7.0871673  52.8903833  78.4781313
   7.3011673  53.4173833  79.1401313   7.8541673  52.7163833  78.0991313
   7.2321673  52.9423833  78.5201313  14.2141673  40.1303833  80.6791313
  13.8681673  40.8083833  81.1051313  13.5781673  39.5323833  80.6951313
  14.0691673  40.1423833  80.7441313   9.5261673  52.9003833  86.7831313
  10.2701673  53.3563833  86.7731313   9.4051673  52.6863833  85.9461313
   9.6181673  52.9363833  86.6581313   2.5301673  52.3753833  82.2131313
   3.3741673  52.4793833  82.0181313   2.2331673  53.1933833  82.2811313
   2.6111673  52.5113833  82.1941313   6.3371673  41.7723833  80.3001313
   6.6241673  41.5403833  79.5101313   7.0691673  41.8513833  80.7691313
   6.4871673  41.7493833  80.2531313   7.0591673  42.1113833  75.4211313
   7.3401673  42.8993833  75.6701313   6.2831673  42.2763833  75.0581313
   6.9861673  42.2523833  75.4041313  11.1001673  54.0853833  76.8881313
  11.7651673  53.9373833  76.3431313  11.4601673  54.0023833  77.6781313
  11.2521673  54.0513833  76.9241313  13.8891673  38.4533833  86.0481313
  14.6461673  38.5253833  85.6201313  13.9521673  37.6803833  86.4471313
  14.0101673  38.3503833  86.0431313   5.9181673  50.2823833  75.2371313
   5.7371673  50.8273833  75.8941313   6.6841673  50.5723833  74.9361313
   6.0041673  50.4063833  75.2901313   9.4251673  38.1783833  76.2911313
   9.9651673  37.4963833  76.3671313   9.4871673  38.5763833  77.0651313
   9.5141673  38.1363833  76.4171313   6.6831673  40.5543833  77.6051313
   6.1751673  39.8923833  77.3511313   6.7351673  41.0583833  76.8951313
   6.6161673  40.5313833  77.4631313   7.2321673  53.2493833  87.9851313
   8.0001673  53.1693833  87.5791313   6.6491673  53.1283833  87.3471313
   7.2591673  53.2193833  87.8311313   6.6831673  37.4953833  77.4961313
   6.2281673  37.0933833  76.8701313   7.4561673  37.6503833  77.1211313
   6.7301673  37.4593833  77.3481313  13.5091673  53.8523833  80.8861313
  13.0541673  54.5693833  81.0871313  12.8951673  53.2813833  80.6441313
  13.3511673  53.8743833  80.8801313   5.2811673  39.8623833  82.0181313
   5.3551673  40.4303833  81.3601313   5.4021673  40.3543833  82.7281313
   5.3091673  40.0193833  82.0261313  10.5061673  49.6973833  80.4301313
  11.2071673  49.2153833  80.6191313   9.8461673  49.1283833  80.4751313
  10.5121673  49.5423833  80.4641313   2.8451673  46.1183833  84.3911313
   3.0171673  45.9083833  85.2201313   2.1901673  45.5843833  84.1751313
   2.7741673  46.0083833  84.4821313   9.0731673  40.0323833  87.9061313
   8.9781673  40.3513833  88.7121313   8.4801673  39.3933833  87.8681313
   8.9711673  39.9843833  88.0201313   3.5951673  46.0563833  86.9811313
   3.6481673  46.9033833  87.1831313   3.3101673  45.6863833  87.7181313
   3.5611673  46.1263833  87.1191313   9.7721673  46.7513833  86.1111313
   9.2581673  46.3393833  86.6821313   9.6461673  47.5953833  86.2921313
   9.6781673  46.8153833  86.2221313  10.3291673  35.9763833  80.7421313
  10.3781673  35.6583833  81.5531313  10.6521673  35.3323833  80.2491313
  10.3841673  35.8343833  80.7891313  12.7931673  40.2123833  89.0501313
  13.5651673  39.9873833  89.3871313  12.3181673  40.4293833  89.7501313
  12.8371673  40.2113833  89.2031313  13.0251673  47.1903833  76.2381313
  13.1441673  46.9033833  77.0531313  13.8321673  47.2113833  75.9081313
  13.1611673  47.1513833  76.3101313  10.9201673  43.7273833  75.8231313
  10.7001673  44.4583833  75.4011313  10.4721673  43.7783833  76.5701313
  10.8211673  43.8423833  75.8711313   2.5291673  46.9293833  79.8041313
   3.2421673  47.4243833  79.8941313   2.7511673  46.3623833  79.1781313
   2.6671673  46.9183833  79.7251313  15.1071673  38.5883833  75.2761313
  14.4451673  38.0203833  75.2991313  14.9141673  39.1003833  74.5961313
  14.9811673  38.5803833  75.1791313  15.4301673  42.9663833  87.8321313
  15.6451673  42.1663833  87.5561313  14.5801673  43.0263833  87.6431313
  15.3361673  42.8573833  87.7631313  13.1091673  38.1463833  77.5551313
  13.8551673  37.7393833  77.7541313  13.3721673  38.8613833  77.1301313
  13.2581673  38.1923833  77.5221313   7.0521673  50.6323833  82.1311313
   6.5291673  51.2663833  81.8381313   7.3621673  50.2683833  81.4021313
   7.0201673  50.6723833  81.9801313   9.5631673  40.4343833  82.6281313
   9.9071673  40.5863833  83.4151313   9.1101673  39.6963833  82.7411313
   9.5471673  40.3473833  82.7611313   4.0391673  39.6543833  77.0851313
   4.0371673  39.5373833  76.2201313   3.8581673  40.5023833  77.1771313
   4.0121673  39.7623833  76.9711313  13.0931673  52.0813833  88.5821313
  12.4221673  52.5953833  88.8001313  13.1561673  52.1813833  87.7181313
  13.0031673  52.1723833  88.4871313   1.7771673  49.6063833  81.7171313
   1.9031673  50.4493833  81.9041313   2.4451673  49.2073833  82.1131313
   1.8951673  49.6723833  81.8031313  10.8841673  41.7663833  85.1821313
  10.2221673  42.0943833  85.6451313  11.0711673  42.4003833  84.6131313
  10.8141673  41.9083833  85.1661313   5.0891673  52.8303833  86.1781313
   4.8121673  52.1893833  85.6551313   4.8811673  53.5563833  85.7401313
   5.0181673  52.8433833  86.0361313   7.5291673  37.6723833  88.6111313
   7.6781673  36.8473833  88.3681313   7.9081673  37.7273833  89.3951313
   7.6071673  37.5583833  88.6911313   9.0771673  39.7353833  78.6931313
   9.5671673  40.4523833  78.6161313   8.2871673  39.9963833  78.4301313
   9.0331673  39.8793833  78.6431313   5.6591673  41.2053833  84.4181313
   6.1391673  41.9043833  84.6261313   6.0321673  40.5583833  84.8691313
   5.7851673  41.2133833  84.5151313   7.8481673  44.3743833  76.6921313
   7.8401673  45.0963833  76.2021313   7.2091673  44.5093833  77.2691313
   7.7531673  44.5013833  76.7051313  12.8201673  48.2443833  80.6731313
  13.1761673  47.8943833  81.3881313  12.8121673  47.5833833  80.1031313
  12.8721673  48.0943833  80.6941313   8.8651673  51.3103833  84.5171313
   8.2621673  51.0143833  83.9601313   9.4101673  51.7623833  84.0081313
   8.8561673  51.3333833  84.3591313   8.8781673  48.1613833  83.9171313
   8.0811673  48.3853833  84.1911313   9.1361673  47.5673833  84.5021313
   8.7981673  48.1063833  84.0441313   2.7701673  52.9733833  78.3651313
   2.6231673  52.1973833  78.7361313   3.4591673  52.8263833  77.8501313
   2.8501673  52.8363833  78.3441313   2.4411673  36.7163833  76.3531313
   2.5381673  36.6093833  77.2141313   1.7331673  37.2223833  76.2881313
   2.3511673  36.7753833  76.4711313   5.0621673  52.4893833  76.7671313
   5.6841673  52.6523833  77.3571313   5.0981673  53.1803833  76.2351313
   5.1591673  52.6153833  76.7761313  12.1381673  46.1593833  88.7631313
  12.1931673  46.2843833  87.9011313  12.8911673  46.4793833  89.0651313
  12.2571673  46.2243833  88.6801313   7.8691673  45.9653833  88.3631313
   7.7141673  46.5753833  88.9671313   8.4031673  45.4073833  88.7691313
   7.9251673  45.9733833  88.5121313   6.2531673  44.3653833  79.0211313
   6.3121673  45.0153833  79.6001313   6.0641673  43.6693833  79.5121313
   6.2341673  44.3583833  79.1791313  11.4791673  48.6943833  84.8901313
  11.0001673  48.9923833  84.2241313  11.1231673  47.9183833  85.0681313
  11.3561673  48.6233833  84.8181313   5.4761673  46.4123833  83.4521313
   4.6291673  46.2183833  83.5331313   5.8001673  46.2473833  84.2451313
   5.3981673  46.3593833  83.5811313   2.2281673  53.1423833  74.3381313
   2.6671673  52.4453833  74.6261313   2.4351673  53.7663833  74.9111313
   2.3241673  53.1313833  74.4651313   2.5541673  41.2763833  82.5031313
   3.4001673  41.0863833  82.6011313   2.1841673  40.4993833  82.3651313
   2.6241673  41.1333833  82.4971313  15.1711673  52.8603833  76.8301313
  15.8651673  52.3933833  76.5821313  14.6321673  52.2623833  77.1671313
  15.1941673  52.7023833  76.8431313  12.4101673  45.6363833  86.0091313
  12.4031673  44.8603833  86.4071313  11.5691673  45.8703833  86.0021313
  12.2851673  45.5563833  86.0671313  13.6661673  45.7073833  83.4461313
  13.3801673  46.1083833  84.1661313  14.5261673  45.6453833  83.5731313
  13.7511673  45.7573833  83.5711313   3.3551673  42.5093833  77.3541313
   3.6271673  43.3353833  77.4211313   2.4921673  42.5843833  77.2581313
   3.2681673  42.6423833  77.3491313  14.7971673  51.3403833  83.9751313
  15.0871673  51.5973833  83.1941313  15.4921673  51.4363833  84.4941313
  14.9431673  51.3923833  83.9361313  11.4021673  49.9433833  75.9571313
  11.7361673  49.1373833  75.9921313  10.6471673  49.8713833  76.3871313
  11.3401673  49.8133833  76.0261313  11.8841673  41.7773833  81.6161313
  11.1391673  41.4543833  81.9341313  11.8861673  42.6033833  81.8961313
  11.7741673  41.8513833  81.7041313  14.3241673  47.7373833  89.3681313
  14.9521673  47.1883833  89.1121313  14.2631673  48.3023833  88.7061313
  14.4081673  47.7403833  89.2321313   8.7761673  47.8183833  75.3601313
   9.4601673  47.3043833  75.1911313   8.3591673  47.8643833  74.5951313
   8.8151673  47.7493833  75.2221313   3.4581673  48.9683833  86.6641313
   3.1601673  49.5603833  87.2311313   3.5131673  49.4103833  85.9151313
   3.4221673  49.1213833  86.6371313  10.7961673  38.1073833  89.0771313
  11.5401673  38.5593833  89.0141313  10.2301673  38.5773833  88.6081313
  10.8231673  38.2443833  88.9991313   5.9741673  45.3913833  86.1551313
   6.4501673  45.7653833  86.7831313   5.1511673  45.5253833  86.4141313
   5.9231673  45.4663833  86.2861313   2.6841673  40.9943833  88.8961313
   2.8451673  40.2503833  89.3231313   2.6391673  40.7453833  88.0611313
   2.7011673  40.8473833  88.8361313   5.2381673  52.7843833  81.3831313
   5.7841673  53.4633833  81.4371313   4.8881673  52.8663833  80.5881313
   5.2671673  52.8973833  81.2731313  12.0811673  36.0873833  86.7471313
  11.8011673  36.9123833  86.7031313  12.7971673  36.1403833  87.2431313
  12.1461673  36.2173833  86.8141313   4.4361673  36.8023833  88.7761313
   5.1411673  37.1223833  88.3741313   4.6771673  35.9953833  89.0031313
   4.5751673  36.7303833  88.7501313   3.4211673  51.0123833  84.7721313
   2.7971673  51.5943833  84.5901313   3.6691673  50.7263833  83.9861313
   3.3651673  51.0563833  84.6291313  13.5021673  42.3423833  75.6041313
  13.8801673  43.0193833  75.2041313  12.6601673  42.5663833  75.6351313
  13.4331673  42.4753833  75.5491313   5.0151673  45.7883833  74.6871313
   4.2101673  45.6113833  74.4021313   4.9821673  46.6393833  74.8791313
   4.8911673  45.8873833  74.6741313   8.6491673  42.4943833  86.7271313
   8.9511673  42.9143833  87.4301313   8.6851673  41.6543833  86.9591313
   8.6991673  42.4323833  86.8651313  11.1971673  41.9413833  78.9791313
  11.4041673  41.7403833  79.8031313  11.9531673  42.2093833  78.6371313
  11.3391673  41.9513833  79.0501313   4.4921673  36.8403833  84.8841313
   3.6661673  36.6913833  85.1211313   4.4521673  36.8753833  84.0131313
   4.3641673  36.8233833  84.7901313  12.2191673  38.0243833  80.4531313
  11.5051673  37.5533833  80.6241313  12.0571673  38.3653833  79.6671313
  12.0901673  38.0053833  80.3621313  12.6621673  45.9683833  78.8331313
  13.1381673  45.2393833  78.7851313  11.8411673  45.6823833  78.7571313
  12.6111673  45.8183833  78.8141313   6.1331673  47.8803833  89.6721313
   5.3381673  47.8163833  90.0231313   6.2041673  48.7273833  89.4771313
   6.0261673  47.9953833  89.6951313   1.9631673  54.0873833  84.9891313
   1.9741673  54.1463833  85.8591313   1.5381673  53.3403833  84.8391313
   1.9021673  53.9853833  85.0951313   8.8781673  47.1353833  81.1881313
   8.9541673  47.4763833  81.9871313   9.0471673  46.2883833  81.3091313
   8.9141673  47.0603833  81.3241313   6.4001673  46.4093833  80.7531313
   6.1021673  46.0943833  81.5101313   7.0951673  46.8823833  80.9881313
   6.4591673  46.4323833  80.9001313   6.6221673  50.5273833  88.7801313
   7.3091673  50.4133833  89.3051313   6.7561673  51.3183833  88.4361313
   6.7431673  50.6273833  88.8071313   9.3111673  43.8013833  89.1671313
   9.0561673  43.0823833  89.5891313  10.1321673  43.9173833  89.4371313
   9.3951673  43.7123833  89.2691313  10.3291673  53.3653833  83.2831313
   9.8781673  54.0083833  83.6621313  11.0371673  53.2863833  83.7881313
  10.3671673  53.4483833  83.4141313   7.0301673  48.4553833  86.2131313
   6.3361673  48.8573833  86.5561313   7.7071673  48.8883833  86.5521313
   7.0271673  48.5783833  86.3141313  13.4321673  43.0813833  78.2751313
  13.5351673  43.0233833  77.4111313  14.1731673  42.7493833  78.5931313
  13.5571673  43.0243833  78.1941313   7.3521673  50.0463833  79.3821313
   7.1471673  50.8793833  79.2231313   6.5771673  49.6643833  79.5041313
   7.2071673  50.1133833  79.3771313  12.5341673  43.2273833  87.6311313
  12.5321673  42.3643833  87.7551313  12.6011673  43.5513833  88.4381313
  12.5441673  43.1473833  87.7681313   7.4071673  38.2173833  82.2671313
   6.7071673  38.7353833  82.2111313   7.4451673  37.8373833  81.4831313
   7.3091673  38.2383833  82.1431313   2.7141673  50.3083833  75.7911313
   3.1551673  50.3883833  76.5391313   1.9091673  50.0923833  76.0491313
   2.6601673  50.2883833  75.9401313  11.0051673  38.7333833  85.0671313
  11.8601673  38.8323833  85.2121313  10.6361673  39.2863833  85.6321313
  11.0771673  38.8303833  85.1721313   2.0331673  44.9593833  89.4441313
   1.6371673  45.7333833  89.5191313   1.6271673  44.5863833  88.7681313
   1.9151673  45.0183833  89.3551313  11.3091673  44.0133833  83.5581313
  11.9751673  44.5543833  83.7181313  10.9641673  44.3243833  82.8191313
  11.3561673  44.1393833  83.4731313  11.6221673  52.0793833  79.3651313
  11.4481673  51.4253833  79.9151313  12.3351673  51.8083833  78.9421313
  11.7021673  51.9423833  79.3841313   2.8621673  47.6233833  75.1351313
   2.0441673  47.3553833  75.2751313   2.8341673  48.4753833  75.3201313
   2.7371673  47.7103833  75.1831313   2.4621673  37.9363833  86.8941313
   1.5981673  38.0203833  86.9741313   2.6821673  37.4223833  87.5631313
   2.3671673  37.8733833  87.0051313  14.4801673  36.5713833  88.2231313
  14.4281673  36.5273833  89.0931313  15.1671673  36.0683833  88.0331313
  14.5741673  36.4913833  88.3231313   6.5651673  38.6843833  85.2681313
   5.8281673  38.2303833  85.3811313   7.1361673  38.2823833  85.7911313
   6.5401673  38.5573833  85.3621313   9.2971673  49.5323833  87.0561313
   9.5031673  49.8333833  87.8481313   9.2361673  50.2543833  86.5711313
   9.3181673  49.6833833  87.1011313   4.8641673  36.2653833  75.0991313
   4.9421673  36.5123833  74.2661313   4.1211673  36.6423833  75.3571313
   4.7661673  36.3573833  75.0141313  14.1091673  48.1713833  86.5141313
  14.0771673  47.3093833  86.3791313  13.4161673  48.4733833  86.0801313
  14.0021673  48.0883833  86.4301313  12.2141673  51.4313833  85.3111313
  12.7411673  51.3483833  84.6201313  11.8231673  50.6533833  85.3651313
  12.2341673  51.3043833  85.2171313   8.7281673  36.8753833  84.5191313
   9.3981673  37.4193833  84.6461313   8.2251673  37.2993833  83.9461313
   8.7531673  37.0183833  84.4531313   8.0871673  42.6833833  82.0121313
   8.6381673  42.0763833  82.3121313   7.6621673  42.9463833  82.7271313
   8.1061673  42.6323833  82.1611313  10.0571673  44.5143833  78.5741313
  10.1251673  43.6643833  78.7551313   9.2341673  44.6003833  78.2961313
   9.9451673  44.4013833  78.5601313   3.9761673  45.4053833  77.5121313
   4.0761673  45.5443833  76.6571313   4.7941673  45.3453833  77.8081313
   4.1111673  45.4163833  77.4291313  13.1361673  53.4693833  74.9921313
  13.7731673  53.3353833  75.5731313  12.7951673  52.6753833  74.8751313
  13.1801673  53.3323833  75.0601313   9.2111673  49.7343833  77.3141313
   8.9601673  49.6063833  78.1401313   8.8941673  49.0393833  76.8931313
   9.1271673  49.6133833  77.3741313  13.8551673  41.3923833  85.4341313
  13.0221673  41.6423833  85.3621313  13.7991673  40.5523833  85.6631313
  13.7241673  41.3053833  85.4571313   6.0971673  47.9423833  76.7441313
   6.8141673  47.5953833  76.3881313   6.0631673  48.7423833  76.3961313
   6.1981673  48.0093833  76.6401313   7.5061673  36.5833833  60.9828903
   7.2611673  37.0713833  60.3028903   8.3691673  36.5103833  60.8828903
   7.5971673  36.6443833  60.8678903   7.3151673  43.4993833  65.6538903
   6.7911673  44.0953833  66.0168903   7.7121673  43.1313833  66.3378903
   7.2961673  43.5333833  65.8088903  13.4591673  50.9403833  58.6248903
  14.1601673  50.4213833  58.6208903  12.8721673  50.4953833  58.1558903
  13.4761673  50.7973833  58.5548903   9.9861673  44.5663833  62.3298903
  10.0661673  44.5703833  61.4608903   9.4021673  43.9343833  62.4788903
   9.9111673  44.4733833  62.2238903   3.9751673  37.6703833  60.1378903
   3.9051673  38.3473833  59.5918903   4.7161673  37.2823833  59.8888903
   4.0741673  37.7133833  60.0198903   3.6981673  47.8993833  72.4318903
   3.4621673  47.8963833  73.2718903   2.9501673  47.7513833  72.0078903
   3.5521673  47.8763833  72.4928903   3.0781673  40.5053833  66.9138903
   3.7561673  40.5233833  66.3648903   3.0331673  39.6693833  67.1588903
   3.1711673  40.3843833  66.8688903   3.6801673  51.0913833  69.6948903
   3.8181673  51.8513833  69.2878903   4.4711673  50.7263833  69.7218903
   3.8171673  51.1503833  69.6388903   4.7751673  48.9763833  64.1998903
   5.1231673  48.1773833  64.2298903   5.4401673  49.4803833  63.9448903
   4.9251673  48.9323833  64.1668903   4.8321673  48.4253833  60.4108903
   5.1631673  47.7813833  60.8968903   5.0721673  48.2143833  59.5998903
   4.9161673  48.2993833  60.3628903   6.8001673  42.5563833  71.7498903
   5.9521673  42.4573833  71.5718903   6.8291673  43.3013833  72.2038903
   6.6791673  42.6523833  71.7908903  11.3581673  35.5163833  70.8638903
  11.2001673  36.2853833  70.4818903  10.5861673  35.2963833  71.2078903
  11.2201673  35.5973833  70.8588903   4.1471673  37.2313833  63.0788903
   4.2201673  38.0913833  63.2078903   4.1091673  37.1563833  62.2108903
   4.1521673  37.3473833  62.9698903   8.8201673  40.1573833  55.3778903
   8.3701673  40.8383833  55.6848903   8.9341673  39.6533833  56.0808903
   8.7711673  40.1833833  55.5268903   2.7761673  50.2103833  59.9598903
   2.1971673  49.9353833  60.5518903   3.4001673  49.6013833  59.9848903
   2.7831673  50.0803833  60.0508903   8.9191673  52.4983833  57.4818903
   9.6461673  52.9703833  57.5838903   9.1481673  51.7043833  57.7618903
   9.0611673  52.4513833  57.5388903   7.0871673  52.8903833  59.4718903
   7.3011673  53.4173833  60.1338903   7.8541673  52.7163833  59.0928903
   7.2321673  52.9423833  59.5138903   3.3611673  39.6063833  74.3688903
   3.4781673  39.1523833  73.6328903   3.6491673  40.4043833  74.1658903
   3.4211673  39.6573833  74.2298903  14.2141673  40.1303833  61.6728903
  13.8681673  40.8083833  62.0988903  13.5781673  39.5323833  61.6888903
  14.0691673  40.1423833  61.7378903   9.5261673  52.9003833  67.7768903
  10.2701673  53.3563833  67.7668903   9.4051673  52.6863833  66.9398903
   9.6181673  52.9363833  67.6518903   2.5301673  52.3753833  63.2068903
   3.3741673  52.4793833  63.0118903   2.2331673  53.1933833  63.2748903
   2.6111673  52.5113833  63.1878903   5.7431673  36.8463833  72.5208903
   5.9211673  36.0373833  72.2458903   5.6001673  37.2873833  71.7818903
   5.7481673  36.7923833  72.3708903   6.3371673  41.7723833  61.2938903
   6.6241673  41.5403833  60.5038903   7.0691673  41.8513833  61.7628903
   6.4871673  41.7493833  61.2468903   7.0591673  42.1113833  56.4148903
   7.3401673  42.8993833  56.6638903   6.2831673  42.2763833  56.0518903
   6.9861673  42.2523833  56.3978903  11.1001673  54.0853833  57.8818903
  11.7651673  53.9373833  57.3368903  11.4601673  54.0023833  58.6718903
  11.2521673  54.0513833  57.9178903  13.8891673  38.4533833  67.0418903
  14.6461673  38.5253833  66.6138903  13.9521673  37.6803833  67.4408903
  14.0101673  38.3503833  67.0368903   8.7801673  50.0853833  71.4808903
   8.7461673  50.4673833  72.2648903   9.6341673  50.0433833  71.3098903
   8.9011673  50.1353833  71.5718903   5.9181673  50.2823833  56.2308903
   5.7371673  50.8273833  56.8878903   6.6841673  50.5723833  55.9298903
   6.0041673  50.4063833  56.2838903   9.4251673  38.1783833  57.2848903
   9.9651673  37.4963833  57.3608903   9.4871673  38.5763833  58.0588903
   9.5141673  38.1363833  57.4108903   6.6831673  40.5543833  58.5988903
   6.1751673  39.8923833  58.3448903   6.7351673  41.0583833  57.8888903
   6.6161673  40.5313833  58.4568903   7.2321673  53.2493833  68.9788903
   8.0001673  53.1693833  68.5728903   6.6491673  53.1283833  68.3408903
   7.2591673  53.2193833  68.8248903   6.6831673  37.4953833  58.4898903
   6.2281673  37.0933833  57.8638903   7.4561673  37.6503833  58.1148903
   6.7301673  37.4593833  58.3418903  13.5091673  53.8523833  61.8798903
  13.0541673  54.5693833  62.0808903  12.8951673  53.2813833  61.6378903
  13.3511673  53.8743833  61.8738903   5.2811673  39.8623833  63.0118903
   5.3551673  40.4303833  62.3538903   5.4021673  40.3543833  63.7218903
   5.3091673  40.0193833  63.0198903  10.5061673  49.6973833  61.4238903
  11.2071673  49.2153833  61.6128903   9.8461673  49.1283833  61.4688903
  10.5121673  49.5423833  61.4578903   2.8451673  46.1183833  65.3848903
   3.0171673  45.9083833  66.2138903   2.1901673  45.5843833  65.1688903
   2.7741673  46.0083833  65.4758903   9.0731673  40.0323833  68.8998903
   8.9781673  40.3513833  69.7058903   8.4801673  39.3933833  68.8618903
   8.9711673  39.9843833  69.0138903   3.5951673  46.0563833  67.9748903
   3.6481673  46.9033833  68.1768903   3.3101673  45.6863833  68.7118903
   3.5611673  46.1263833  68.1128903   9.7721673  46.7513833  67.1048903
   9.2581673  46.3393833  67.6758903   9.6461673  47.5953833  67.2858903
   9.6781673  46.8153833  67.2158903  10.3291673  35.9763833  61.7358903
  10.3781673  35.6583833  62.5468903  10.6521673  35.3323833  61.2428903
  10.3841673  35.8343833  61.7828903  12.7931673  40.2123833  70.0438903
  13.5651673  39.9873833  70.3808903  12.3181673  40.4293833  70.7438903
  12.8371673  40.2113833  70.1968903  13.0251673  47.1903833  57.2318903
  13.1441673  46.9033833  58.0468903  13.8321673  47.2113833  56.9018903
  13.1611673  47.1513833  57.3038903  15.2591673  51.6993833  71.4858903
  14.5771673  52.0093833  71.0388903  14.8901673  51.2413833  72.1308903
  15.1031673  51.6773833  71.5148903  10.9201673  43.7273833  56.8168903
  10.7001673  44.4583833  56.3948903  10.4721673  43.7783833  57.5638903
  10.8211673  43.8423833  56.8648903   2.5291673  46.9293833  60.7978903
   3.2421673  47.4243833  60.8878903   2.7511673  46.3623833  60.1718903
   2.6671673  46.9183833  60.7188903   4.3321673  42.2823833  74.2138903
   3.8481673  42.8593833  74.6558903   4.3041673  42.5773833  73.3928903
   4.2561673  42.4113833  74.1578903  15.4301673  42.9663833  68.8258903
  15.6451673  42.1663833  68.5498903  14.5801673  43.0263833  68.6368903
  15.3361673  42.8573833  68.7568903  13.1091673  38.1463833  58.5488903
  13.8551673  37.7393833  58.7478903  13.3721673  38.8613833  58.1238903
  13.2581673  38.1923833  58.5158903   7.0521673  50.6323833  63.1248903
   6.5291673  51.2663833  62.8318903   7.3621673  50.2683833  62.3958903
   7.0201673  50.6723833  62.9738903   9.5631673  40.4343833  63.6218903
   9.9071673  40.5863833  64.4088903   9.1101673  39.6963833  63.7348903
   9.5471673  40.3473833  63.7548903   4.0391673  39.6543833  58.0788903
   4.0371673  39.5373833  57.2138903   3.8581673  40.5023833  58.1708903
   4.0121673  39.7623833  57.9648903  13.0931673  52.0813833  69.5758903
  12.4221673  52.5953833  69.7938903  13.1561673  52.1813833  68.7118903
  13.0031673  52.1723833  69.4808903   1.7771673  49.6063833  62.7108903
   1.9031673  50.4493833  62.8978903   2.4451673  49.2073833  63.1068903
   1.8951673  49.6723833  62.7968903  10.8841673  41.7663833  66.1758903
  10.2221673  42.0943833  66.6388903  11.0711673  42.4003833  65.6068903
  10.8141673  41.9083833  66.1598903   5.0891673  52.8303833  67.1718903
   4.8121673  52.1893833  66.6488903   4.8811673  53.5563833  66.7338903
   5.0181673  52.8433833  67.0298903   7.5291673  37.6723833  69.6048903
   7.6781673  36.8473833  69.3618903   7.9081673  37.7273833  70.3888903
   7.6071673  37.5583833  69.6848903   9.0771673  39.7353833  59.6868903
   9.5671673  40.4523833  59.6098903   8.2871673  39.9963833  59.4238903
   9.0331673  39.8793833  59.6368903  10.3911673  47.6133833  71.5968903
  10.8751673  48.3313833  71.6948903  10.7851673  47.1863833  70.9458903
  10.5211673  47.6563833  71.5148903   4.6871673  50.4583833  72.7738903
   5.0411673  50.2803833  73.5508903   4.2511673  49.7293833  72.5748903
   4.6751673  50.3243833  72.8598903   5.6591673  41.2053833  65.4118903
   6.1391673  41.9043833  65.6198903   6.0321673  40.5583833  65.8628903
   5.7851673  41.2133833  65.5088903   7.8481673  44.3743833  57.6858903
   7.8401673  45.0963833  57.1958903   7.2091673  44.5093833  58.2628903
   7.7531673  44.5013833  57.6988903  12.8201673  48.2443833  61.6668903
  13.1761673  47.8943833  62.3818903  12.8121673  47.5833833  61.0968903
  12.8721673  48.0943833  61.6878903   8.8651673  51.3103833  65.5108903
   8.2621673  51.0143833  64.9538903   9.4101673  51.7623833  65.0018903
   8.8561673  51.3333833  65.3528903   8.8781673  48.1613833  64.9108903
   8.0811673  48.3853833  65.1848903   9.1361673  47.5673833  65.4958903
   8.7981673  48.1063833  65.0378903   2.7701673  52.9733833  59.3588903
   2.6231673  52.1973833  59.7298903   3.4591673  52.8263833  58.8438903
   2.8501673  52.8363833  59.3378903   2.4411673  36.7163833  57.3468903
   2.5381673  36.6093833  58.2078903   1.7331673  37.2223833  57.2818903
   2.3511673  36.7753833  57.4648903   5.0621673  52.4893833  57.7608903
   5.6841673  52.6523833  58.3508903   5.0981673  53.1803833  57.2288903
   5.1591673  52.6153833  57.7698903  12.1381673  46.1593833  69.7568903
  12.1931673  46.2843833  68.8948903  12.8911673  46.4793833  70.0588903
  12.2571673  46.2243833  69.6738903   8.3291673  51.5083833  74.0338903
   8.4931673  51.7913833  74.8428903   8.5921673  52.1693833  73.5288903
   8.3921673  51.6483833  74.0788903  13.1701673  36.4573833  72.7438903
  12.5331673  36.0573833  72.3018903  13.1961673  36.0263833  73.5018903
  13.0801673  36.3353833  72.7898903   7.8691673  45.9653833  69.3568903
   7.7141673  46.5753833  69.9608903   8.4031673  45.4073833  69.7628903
   7.9251673  45.9733833  69.5058903   6.2531673  44.3653833  60.0148903
   6.3121673  45.0153833  60.5938903   6.0641673  43.6693833  60.5058903
   6.2341673  44.3583833  60.1728903  11.4791673  48.6943833  65.8838903
  11.0001673  48.9923833  65.2178903  11.1231673  47.9183833  66.0618903
  11.3561673  48.6233833  65.8118903   5.4761673  46.4123833  64.4458903
   4.6291673  46.2183833  64.5268903   5.8001673  46.2473833  65.2388903
   5.3981673  46.3593833  64.5748903   2.2281673  53.1423833  55.3318903
   2.6671673  52.4453833  55.6198903   2.4351673  53.7663833  55.9048903
   2.3241673  53.1313833  55.4588903   2.5541673  41.2763833  63.4968903
   3.4001673  41.0863833  63.5948903   2.1841673  40.4993833  63.3588903
   2.6241673  41.1333833  63.4908903  15.1711673  52.8603833  57.8238903
  15.8651673  52.3933833  57.5758903  14.6321673  52.2623833  58.1608903
  15.1941673  52.7023833  57.8368903  12.4101673  45.6363833  67.0028903
  12.4031673  44.8603833  67.4008903  11.5691673  45.8703833  66.9958903
  12.2851673  45.5563833  67.0608903  13.6661673  45.7073833  64.4398903
  13.3801673  46.1083833  65.1598903  14.5261673  45.6453833  64.5668903
  13.7511673  45.7573833  64.5648903   3.3551673  42.5093833  58.3478903
   3.6271673  43.3353833  58.4148903   2.4921673  42.5843833  58.2518903
   3.2681673  42.6423833  58.3428903  11.3281673  39.6313833  72.9798903
  10.8031673  40.0903833  73.5038903  10.9671673  38.8363833  72.9738903
  11.1971673  39.5813833  73.0558903  14.7971673  51.3403833  64.9688903
  15.0871673  51.5973833  64.1878903  15.4921673  51.4363833  65.4878903
  14.9431673  51.3923833  64.9298903   9.8201673  43.2003833  73.0558903
   9.8931673  43.3043833  73.9188903   9.1861673  43.7583833  72.8348903
   9.7371673  43.2983833  73.1508903  12.0881673  43.5193833  71.4208903
  12.4071673  44.3053833  71.6238903  11.7181673  43.2493833  72.1638903
  12.0811673  43.5953833  71.5608903  11.4021673  49.9433833  56.9508903
  11.7361673  49.1373833  56.9858903  10.6471673  49.8713833  57.3808903
  11.3401673  49.8133833  57.0198903  11.8841673  41.7773833  62.6098903
  11.1391673  41.4543833  62.9278903  11.8861673  42.6033833  62.8898903
  11.7741673  41.8513833  62.6978903  14.7861673  44.0613833  74.1558903
  14.7341673  43.7203833  73.3548903  15.5231673  44.5283833  74.1338903
  14.8871673  44.0803833  74.0338903  14.3241673  47.7373833  70.3618903
  14.9521673  47.1883833  70.1058903  14.2631673  48.3023833  69.6998903
  14.4081673  47.7403833  70.2258903   8.7761673  47.8183833  56.3538903
   9.4601673  47.3043833  56.1848903   8.3591673  47.8643833  55.5888903
   8.8151673  47.7493833  56.2158903   3.4581673  48.9683833  67.6578903
   3.1601673  49.5603833  68.2248903   3.5131673  49.4103833  66.9088903
   3.4221673  49.1213833  67.6308903  10.7961673  38.1073833  70.0708903
  11.5401673  38.5593833  70.0078903  10.2301673  38.5773833  69.6018903
  10.8231673  38.2443833  69.9928903   5.9741673  45.3913833  67.1488903
   6.4501673  45.7653833  67.7768903   5.1511673  45.5253833  67.4078903
   5.9231673  45.4663833  67.2798903   2.6841673  40.9943833  69.8898903
   2.8451673  40.2503833  70.3168903   2.6391673  40.7453833  69.0548903
   2.7011673  40.8473833  69.8298903   5.2381673  52.7843833  62.3768903
   5.7841673  53.4633833  62.4308903   4.8881673  52.8663833  61.5818903
   5.2671673  52.8973833  62.2668903  12.0811673  36.0873833  67.7408903
  11.8011673  36.9123833  67.6968903  12.7971673  36.1403833  68.2368903
  12.1461673  36.2173833  67.8078903   4.4361673  36.8023833  69.7698903
   5.1411673  37.1223833  69.3678903   4.6771673  35.9953833  69.9968903
   4.5751673  36.7303833  69.7438903   3.4211673  51.0123833  65.7658903
   2.7971673  51.5943833  65.5838903   3.6691673  50.7263833  64.9798903
   3.3651673  51.0563833  65.6228903   7.7301673  47.6463833  72.7548903
   8.4871673  47.9323833  72.4288903   7.1831673  47.6983833  72.0768903
   7.7611673  47.6963833  72.6058903  11.6391673  50.1963833  71.2588903
  11.9851673  50.4663833  72.0128903  11.9331673  50.7783833  70.6788903
  11.7341673  50.3223833  71.2848903  13.5021673  42.3423833  56.5978903
  13.8801673  43.0193833  56.1978903  12.6601673  42.5663833  56.6288903
  13.4331673  42.4753833  56.5428903   5.0151673  45.7883833  55.6808903
   4.2101673  45.6113833  55.3958903   4.9821673  46.6393833  55.8728903
   4.8911673  45.8873833  55.6678903   8.9611673  40.9573833  71.4228903
   8.3131673  41.4273833  71.7708903   9.5261673  40.8683833  72.0818903
   8.9491673  41.0133833  71.5718903   8.6491673  42.4943833  67.7208903
   8.9511673  42.9143833  68.4238903   8.6851673  41.6543833  67.9528903
   8.6991673  42.4323833  67.8588903   6.0741673  52.6613833  71.6458903
   6.5521673  52.0613833  71.2298903   5.7231673  52.2183833  72.3108903
   6.0931673  52.5073833  71.6828903  11.1971673  41.9413833  59.9728903
  11.4041673  41.7403833  60.7968903  11.9531673  42.2093833  59.6308903
  11.3391673  41.9513833  60.0438903   4.4921673  36.8403833  65.8778903
   3.6661673  36.6913833  66.1148903   4.4521673  36.8753833  65.0068903
   4.3641673  36.8233833  65.7838903  12.2191673  38.0243833  61.4468903
  11.5051673  37.5533833  61.6178903  12.0571673  38.3653833  60.6608903
  12.0901673  38.0053833  61.3558903  12.6621673  45.9683833  59.8268903
  13.1381673  45.2393833  59.7788903  11.8411673  45.6823833  59.7508903
  12.6111673  45.8183833  59.8078903   6.1331673  47.8803833  70.6658903
   5.3381673  47.8163833  71.0168903   6.2041673  48.7273833  70.4708903
   6.0261673  47.9953833  70.6888903   1.9631673  54.0873833  65.9828903
   1.9741673  54.1463833  66.8528903   1.5381673  53.3403833  65.8328903
   1.9021673  53.9853833  66.0888903   8.8781673  47.1353833  62.1818903
   8.9541673  47.4763833  62.9808903   9.0471673  46.2883833  62.3028903
   8.9141673  47.0603833  62.3178903   6.4001673  46.4093833  61.7468903
   6.1021673  46.0943833  62.5038903   7.0951673  46.8823833  61.9818903
   6.4591673  46.4323833  61.8938903   6.6221673  50.5273833  69.7738903
   7.3091673  50.4133833  70.2988903   6.7561673  51.3183833  69.4298903
   6.7431673  50.6273833  69.8008903  14.7981673  43.1363833  71.5848903
  13.9431673  43.0143833  71.7108903  14.9511673  42.7413833  70.8218903
  14.6941673  43.0593833  71.4908903   9.3111673  43.8013833  70.1608903
   9.0561673  43.0823833  70.5828903  10.1321673  43.9173833  70.4308903
   9.3951673  43.7123833  70.2628903   7.2451673  44.9913833  73.3478903
   7.5681673  45.6773833  72.9158903   6.5411673  45.3143833  73.7498903
   7.1881673  45.1403833  73.3428903  10.3291673  53.3653833  64.2768903
   9.8781673  54.0083833  64.6558903  11.0371673  53.2863833  64.7818903
  10.3671673  53.4483833  64.4078903   7.0301673  48.4553833  67.2068903
   6.3361673  48.8573833  67.5498903   7.7071673  48.8883833  67.5458903
   7.0271673  48.5783833  67.3078903  12.4071673  51.0483833  73.7868903
  13.1831673  50.6583833  73.8698903  11.9381673  50.7123833  74.4418903
  12.4521673  50.9413833  73.8958903  13.4321673  43.0813833  59.2688903
  13.5351673  43.0233833  58.4048903  14.1731673  42.7493833  59.5868903
  13.5571673  43.0243833  59.1878903   7.3521673  50.0463833  60.3758903
   7.1471673  50.8793833  60.2168903   6.5771673  49.6643833  60.4978903
   7.2071673  50.1133833  60.3708903  12.5341673  43.2273833  68.6248903
  12.5321673  42.3643833  68.7488903  12.6011673  43.5513833  69.4318903
  12.5441673  43.1473833  68.7618903   8.4131673  38.0273833  72.4068903
   8.5051673  38.7393833  72.9008903   7.7761673  37.5823833  72.8038903
   8.3321673  38.0663833  72.5388903   7.4071673  38.2173833  63.2608903
   6.7071673  38.7353833  63.2048903   7.4451673  37.8373833  62.4768903
   7.3091673  38.2383833  63.1368903   2.7141673  50.3083833  56.7848903
   3.1551673  50.3883833  57.5328903   1.9091673  50.0923833  57.0428903
   2.6601673  50.2883833  56.9338903  11.0051673  38.7333833  66.0608903
  11.8601673  38.8323833  66.2058903  10.6361673  39.2863833  66.6258903
  11.0771673  38.8303833  66.1658903   2.0331673  44.9593833  70.4378903
   1.6371673  45.7333833  70.5128903   1.6271673  44.5863833  69.7618903
   1.9151673  45.0183833  70.3488903  11.3091673  44.0133833  64.5518903
  11.9751673  44.5543833  64.7118903  10.9641673  44.3243833  63.8128903
  11.3561673  44.1393833  64.4668903  11.6221673  52.0793833  60.3588903
  11.4481673  51.4253833  60.9088903  12.3351673  51.8083833  59.9358903
  11.7021673  51.9423833  60.3778903   2.8621673  47.6233833  56.1288903
   2.0441673  47.3553833  56.2688903   2.8341673  48.4753833  56.3138903
   2.7371673  47.7103833  56.1768903   2.4621673  37.9363833  67.8878903
   1.5981673  38.0203833  67.9678903   2.6821673  37.4223833  68.5568903
   2.3671673  37.8733833  67.9988903  14.4801673  36.5713833  69.2168903
  14.4281673  36.5273833  70.0868903  15.1671673  36.0683833  69.0268903
  14.5741673  36.4913833  69.3168903   6.5651673  38.6843833  66.2618903
   5.8281673  38.2303833  66.3748903   7.1361673  38.2823833  66.7848903
   6.5401673  38.5573833  66.3558903   9.2971673  49.5323833  68.0498903
   9.5031673  49.8333833  68.8418903   9.2361673  50.2543833  67.5648903
   9.3181673  49.6833833  68.0948903   8.8311673  53.7463833  72.2958903
   8.0781673  53.7283833  71.8548903   8.9991673  54.5983833  72.3798903
   8.7451673  53.8693833  72.2428903   4.0681673  43.0133833  71.4658903
   3.7461673  42.4373833  70.8958903   3.7091673  43.7683833  71.2198903
   3.9681673  43.0393833  71.3458903   4.8641673  36.2653833  56.0928903
   4.9421673  36.5123833  55.2598903   4.1211673  36.6423833  56.3508903
   4.7661673  36.3573833  56.0078903  14.1091673  48.1713833  67.5078903
  14.0771673  47.3093833  67.3728903  13.4161673  48.4733833  67.0738903
  14.0021673  48.0883833  67.4238903   2.5031673  53.3693833  71.7138903
   2.5441673  53.4953833  72.5768903   3.1541673  52.8093833  71.5578903
   2.6051673  53.3053833  71.8188903  12.2141673  51.4313833  66.3048903
  12.7411673  51.3483833  65.6138903  11.8231673  50.6533833  66.3588903
  12.2341673  51.3043833  66.2108903   8.7281673  36.8753833  65.5128903
   9.3981673  37.4193833  65.6398903   8.2251673  37.2993833  64.9398903
   8.7531673  37.0183833  65.4468903   8.0871673  42.6833833  63.0058903
   8.6381673  42.0763833  63.3058903   7.6621673  42.9463833  63.7208903
   8.1061673  42.6323833  63.1548903  10.0571673  44.5143833  59.5678903
  10.1251673  43.6643833  59.7488903   9.2341673  44.6003833  59.2898903
   9.9451673  44.4013833  59.5538903   3.9761673  45.4053833  58.5058903
   4.0761673  45.5443833  57.6508903   4.7941673  45.3453833  58.8018903
   4.1111673  45.4163833  58.4228903  13.1361673  53.4693833  55.9858903
  13.7731673  53.3353833  56.5668903  12.7951673  52.6753833  55.8688903
  13.1801673  53.3323833  56.0538903  13.3311673  45.8873833  72.7188903
  13.9651673  45.7173833  73.2928903  13.7481673  46.2903833  72.0668903
  13.4861673  45.9223833  72.7078903   9.2111673  49.7343833  58.3078903
   8.9601673  49.6063833  59.1338903   8.8941673  49.0393833  57.8868903
   9.1271673  49.6133833  58.3678903  13.9561673  40.4513833  73.4568903
  13.7601673  41.0953833  74.0118903  13.2341673  39.9613833  73.4488903
  13.8211673  40.4743833  73.5378903  13.8551673  41.3923833  66.4278903
  13.0221673  41.6423833  66.3558903  13.7991673  40.5523833  66.6568903
  13.7241673  41.3053833  66.4508903   3.1151673  38.3803833  71.6218903
   3.3491673  37.8043833  71.0088903   2.2731673  38.1993833  71.7628903
   3.0251673  38.2683833  71.5518903  10.7421673  45.9983833  74.0738903
  11.6131673  45.9623833  74.0378903  10.5231673  46.4183833  73.3418903
  10.8391673  46.0543833  73.9608903   6.0971673  47.9423833  57.7378903
   6.8141673  47.5953833  57.3818903   6.0631673  48.7423833  57.3898903
   6.1981673  48.0093833  57.6338903   7.5061673  36.5833833  41.9766493
   7.2611673  37.0713833  41.2966493   8.3691673  36.5103833  41.8766493
   7.5971673  36.6443833  41.8616493   7.3151673  43.4993833  46.6476493
   6.7911673  44.0953833  47.0106493   7.7121673  43.1313833  47.3316493
   7.2961673  43.5333833  46.8026493  13.4591673  50.9403833  39.6186493
  14.1601673  50.4213833  39.6146493  12.8721673  50.4953833  39.1496493
  13.4761673  50.7973833  39.5486493   9.9861673  44.5663833  43.3236493
  10.0661673  44.5703833  42.4546493   9.4021673  43.9343833  43.4726493
   9.9111673  44.4733833  43.2176493   3.9751673  37.6703833  41.1316493
   3.9051673  38.3473833  40.5856493   4.7161673  37.2823833  40.8826493
   4.0741673  37.7133833  41.0136493   3.6981673  47.8993833  53.4256493
   3.4621673  47.8963833  54.2656493   2.9501673  47.7513833  53.0016493
   3.5521673  47.8763833  53.4866493   3.0781673  40.5053833  47.9076493
   3.7561673  40.5233833  47.3586493   3.0331673  39.6693833  48.1526493
   3.1711673  40.3843833  47.8626493   3.6801673  51.0913833  50.6886493
   3.8181673  51.8513833  50.2816493   4.4711673  50.7263833  50.7156493
   3.8171673  51.1503833  50.6326493   4.7751673  48.9763833  45.1936493
   5.1231673  48.1773833  45.2236493   5.4401673  49.4803833  44.9386493
   4.9251673  48.9323833  45.1606493   4.8321673  48.4253833  41.4046493
   5.1631673  47.7813833  41.8906493   5.0721673  48.2143833  40.5936493
   4.9161673  48.2993833  41.3566493   6.8001673  42.5563833  52.7436493
   5.9521673  42.4573833  52.5656493   6.8291673  43.3013833  53.1976493
   6.6791673  42.6523833  52.7846493  11.3581673  35.5163833  51.8576493
  11.2001673  36.2853833  51.4756493  10.5861673  35.2963833  52.2016493
  11.2201673  35.5973833  51.8526493   4.1471673  37.2313833  44.0726493
   4.2201673  38.0913833  44.2016493   4.1091673  37.1563833  43.2046493
   4.1521673  37.3473833  43.9636493   8.8201673  40.1573833  36.3716493
   8.3701673  40.8383833  36.6786493   8.9341673  39.6533833  37.0746493
   8.7711673  40.1833833  36.5206493   2.7761673  50.2103833  40.9536493
   2.1971673  49.9353833  41.5456493   3.4001673  49.6013833  40.9786493
   2.7831673  50.0803833  41.0446493   8.9191673  52.4983833  38.4756493
   9.6461673  52.9703833  38.5776493   9.1481673  51.7043833  38.7556493
   9.0611673  52.4513833  38.5326493   7.0871673  52.8903833  40.4656493
   7.3011673  53.4173833  41.1276493   7.8541673  52.7163833  40.0866493
   7.2321673  52.9423833  40.5076493   3.3611673  39.6063833  55.3626493
   3.4781673  39.1523833  54.6266493   3.6491673  40.4043833  55.1596493
   3.4211673  39.6573833  55.2236493  14.2141673  40.1303833  42.6666493
  13.8681673  40.8083833  43.0926493  13.5781673  39.5323833  42.6826493
  14.0691673  40.1423833  42.7316493   9.5261673  52.9003833  48.7706493
  10.2701673  53.3563833  48.7606493   9.4051673  52.6863833  47.9336493
   9.6181673  52.9363833  48.6456493   2.5301673  52.3753833  44.2006493
   3.3741673  52.4793833  44.0056493   2.2331673  53.1933833  44.2686493
   2.6111673  52.5113833  44.1816493   5.7431673  36.8463833  53.5146493
   5.9211673  36.0373833  53.2396493   5.6001673  37.2873833  52.7756493
   5.7481673  36.7923833  53.3646493   6.3371673  41.7723833  42.2876493
   6.6241673  41.5403833  41.4976493   7.0691673  41.8513833  42.7566493
   6.4871673  41.7493833  42.2406493   7.0591673  42.1113833  37.4086493
   7.3401673  42.8993833  37.6576493   6.2831673  42.2763833  37.0456493
   6.9861673  42.2523833  37.3916493  11.1001673  54.0853833  38.8756493
  11.7651673  53.9373833  38.3306493  11.4601673  54.0023833  39.6656493
  11.2521673  54.0513833  38.9116493  13.8891673  38.4533833  48.0356493
  14.6461673  38.5253833  47.6076493  13.9521673  37.6803833  48.4346493
  14.0101673  38.3503833  48.0306493   8.7801673  50.0853833  52.4746493
   8.7461673  50.4673833  53.2586493   9.6341673  50.0433833  52.3036493
   8.9011673  50.1353833  52.5656493   5.9181673  50.2823833  37.2246493
   5.7371673  50.8273833  37.8816493   6.6841673  50.5723833  36.9236493
   6.0041673  50.4063833  37.2776493   9.4251673  38.1783833  38.2786493
   9.9651673  37.4963833  38.3546493   9.4871673  38.5763833  39.0526493
   9.5141673  38.1363833  38.4046493   6.6831673  40.5543833  39.5926493
   6.1751673  39.8923833  39.3386493   6.7351673  41.0583833  38.8826493
   6.6161673  40.5313833  39.4506493   7.2321673  53.2493833  49.9726493
   8.0001673  53.1693833  49.5666493   6.6491673  53.1283833  49.3346493
   7.2591673  53.2193833  49.8186493   6.6831673  37.4953833  39.4836493
   6.2281673  37.0933833  38.8576493   7.4561673  37.6503833  39.1086493
   6.7301673  37.4593833  39.3356493  13.5091673  53.8523833  42.8736493
  13.0541673  54.5693833  43.0746493  12.8951673  53.2813833  42.6316493
  13.3511673  53.8743833  42.8676493   5.2811673  39.8623833  44.0056493
   5.3551673  40.4303833  43.3476493   5.4021673  40.3543833  44.7156493
   5.3091673  40.0193833  44.0136493  10.5061673  49.6973833  42.4176493
  11.2071673  49.2153833  42.6066493   9.8461673  49.1283833  42.4626493
  10.5121673  49.5423833  42.4516493   2.8451673  46.1183833  46.3786493
   3.0171673  45.9083833  47.2076493   2.1901673  45.5843833  46.1626493
   2.7741673  46.0083833  46.4696493   9.0731673  40.0323833  49.8936493
   8.9781673  40.3513833  50.6996493   8.4801673  39.3933833  49.8556493
   8.9711673  39.9843833  50.0076493   3.5951673  46.0563833  48.9686493
   3.6481673  46.9033833  49.1706493   3.3101673  45.6863833  49.7056493
   3.5611673  46.1263833  49.1066493   9.7721673  46.7513833  48.0986493
   9.2581673  46.3393833  48.6696493   9.6461673  47.5953833  48.2796493
   9.6781673  46.8153833  48.2096493  10.3291673  35.9763833  42.7296493
  10.3781673  35.6583833  43.5406493  10.6521673  35.3323833  42.2366493
  10.3841673  35.8343833  42.7766493  12.7931673  40.2123833  51.0376493
  13.5651673  39.9873833  51.3746493  12.3181673  40.4293833  51.7376493
  12.8371673  40.2113833  51.1906493  13.0251673  47.1903833  38.2256493
  13.1441673  46.9033833  39.0406493  13.8321673  47.2113833  37.8956493
  13.1611673  47.1513833  38.2976493  15.2591673  51.6993833  52.4796493
  14.5771673  52.0093833  52.0326493  14.8901673  51.2413833  53.1246493
  15.1031673  51.6773833  52.5086493  10.9201673  43.7273833  37.8106493
  10.7001673  44.4583833  37.3886493  10.4721673  43.7783833  38.5576493
  10.8211673  43.8423833  37.8586493   2.5291673  46.9293833  41.7916493
   3.2421673  47.4243833  41.8816493   2.7511673  46.3623833  41.1656493
   2.6671673  46.9183833  41.7126493  15.1071673  38.5883833  37.2636493
  14.4451673  38.0203833  37.2866493  14.9141673  39.1003833  36.5836493
  14.9811673  38.5803833  37.1666493   4.3321673  42.2823833  55.2076493
   3.8481673  42.8593833  55.6496493   4.3041673  42.5773833  54.3866493
   4.2561673  42.4113833  55.1516493  15.4301673  42.9663833  49.8196493
  15.6451673  42.1663833  49.5436493  14.5801673  43.0263833  49.6306493
  15.3361673  42.8573833  49.7506493  13.1091673  38.1463833  39.5426493
  13.8551673  37.7393833  39.7416493  13.3721673  38.8613833  39.1176493
  13.2581673  38.1923833  39.5096493   7.0521673  50.6323833  44.1186493
   6.5291673  51.2663833  43.8256493   7.3621673  50.2683833  43.3896493
   7.0201673  50.6723833  43.9676493   9.5631673  40.4343833  44.6156493
   9.9071673  40.5863833  45.4026493   9.1101673  39.6963833  44.7286493
   9.5471673  40.3473833  44.7486493   4.0391673  39.6543833  39.0726493
   4.0371673  39.5373833  38.2076493   3.8581673  40.5023833  39.1646493
   4.0121673  39.7623833  38.9586493  13.0931673  52.0813833  50.5696493
  12.4221673  52.5953833  50.7876493  13.1561673  52.1813833  49.7056493
  13.0031673  52.1723833  50.4746493   1.7771673  49.6063833  43.7046493
   1.9031673  50.4493833  43.8916493   2.4451673  49.2073833  44.1006493
   1.8951673  49.6723833  43.7906493  10.8841673  41.7663833  47.1696493
  10.2221673  42.0943833  47.6326493  11.0711673  42.4003833  46.6006493
  10.8141673  41.9083833  47.1536493   5.0891673  52.8303833  48.1656493
   4.8121673  52.1893833  47.6426493   4.8811673  53.5563833  47.7276493
   5.0181673  52.8433833  48.0236493   7.5291673  37.6723833  50.5986493
   7.6781673  36.8473833  50.3556493   7.9081673  37.7273833  51.3826493
   7.6071673  37.5583833  50.6786493   9.0771673  39.7353833  40.6806493
   9.5671673  40.4523833  40.6036493   8.2871673  39.9963833  40.4176493
   9.0331673  39.8793833  40.6306493  10.3911673  47.6133833  52.5906493
  10.8751673  48.3313833  52.6886493  10.7851673  47.1863833  51.9396493
  10.5211673  47.6563833  52.5086493   4.6871673  50.4583833  53.7676493
   5.0411673  50.2803833  54.5446493   4.2511673  49.7293833  53.5686493
   4.6751673  50.3243833  53.8536493   5.6591673  41.2053833  46.4056493
   6.1391673  41.9043833  46.6136493   6.0321673  40.5583833  46.8566493
   5.7851673  41.2133833  46.5026493   7.8481673  44.3743833  38.6796493
   7.8401673  45.0963833  38.1896493   7.2091673  44.5093833  39.2566493
   7.7531673  44.5013833  38.6926493  12.8201673  48.2443833  42.6606493
  13.1761673  47.8943833  43.3756493  12.8121673  47.5833833  42.0906493
  12.8721673  48.0943833  42.6816493   8.8651673  51.3103833  46.5046493
   8.2621673  51.0143833  45.9476493   9.4101673  51.7623833  45.9956493
   8.8561673  51.3333833  46.3466493   8.8781673  48.1613833  45.9046493
   8.0811673  48.3853833  46.1786493   9.1361673  47.5673833  46.4896493
   8.7981673  48.1063833  46.0316493   2.7701673  52.9733833  40.3526493
   2.6231673  52.1973833  40.7236493   3.4591673  52.8263833  39.8376493
   2.8501673  52.8363833  40.3316493   2.4411673  36.7163833  38.3406493
   2.5381673  36.6093833  39.2016493   1.7331673  37.2223833  38.2756493
   2.3511673  36.7753833  38.4586493   5.0621673  52.4893833  38.7546493
   5.6841673  52.6523833  39.3446493   5.0981673  53.1803833  38.2226493
   5.1591673  52.6153833  38.7636493  12.1381673  46.1593833  50.7506493
  12.1931673  46.2843833  49.8886493  12.8911673  46.4793833  51.0526493
  12.2571673  46.2243833  50.6676493   8.3291673  51.5083833  55.0276493
   8.4931673  51.7913833  55.8366493   8.5921673  52.1693833  54.5226493
   8.3921673  51.6483833  55.0726493  13.1701673  36.4573833  53.7376493
  12.5331673  36.0573833  53.2956493  13.1961673  36.0263833  54.4956493
  13.0801673  36.3353833  53.7836493   7.8691673  45.9653833  50.3506493
   7.7141673  46.5753833  50.9546493   8.4031673  45.4073833  50.7566493
   7.9251673  45.9733833  50.4996493   6.2531673  44.3653833  41.0086493
   6.3121673  45.0153833  41.5876493   6.0641673  43.6693833  41.4996493
   6.2341673  44.3583833  41.1666493  11.4791673  48.6943833  46.8776493
  11.0001673  48.9923833  46.2116493  11.1231673  47.9183833  47.0556493
  11.3561673  48.6233833  46.8056493   5.4761673  46.4123833  45.4396493
   4.6291673  46.2183833  45.5206493   5.8001673  46.2473833  46.2326493
   5.3981673  46.3593833  45.5686493   2.2281673  53.1423833  36.3256493
   2.6671673  52.4453833  36.6136493   2.4351673  53.7663833  36.8986493
   2.3241673  53.1313833  36.4526493   2.5541673  41.2763833  44.4906493
   3.4001673  41.0863833  44.5886493   2.1841673  40.4993833  44.3526493
   2.6241673  41.1333833  44.4846493  15.1711673  52.8603833  38.8176493
  15.8651673  52.3933833  38.5696493  14.6321673  52.2623833  39.1546493
  15.1941673  52.7023833  38.8306493  12.4101673  45.6363833  47.9966493
  12.4031673  44.8603833  48.3946493  11.5691673  45.8703833  47.9896493
  12.2851673  45.5563833  48.0546493  13.6661673  45.7073833  45.4336493
  13.3801673  46.1083833  46.1536493  14.5261673  45.6453833  45.5606493
  13.7511673  45.7573833  45.5586493   3.3551673  42.5093833  39.3416493
   3.6271673  43.3353833  39.4086493   2.4921673  42.5843833  39.2456493
   3.2681673  42.6423833  39.3366493  11.3281673  39.6313833  53.9736493
  10.8031673  40.0903833  54.4976493  10.9671673  38.8363833  53.9676493
  11.1971673  39.5813833  54.0496493  14.7971673  51.3403833  45.9626493
  15.0871673  51.5973833  45.1816493  15.4921673  51.4363833  46.4816493
  14.9431673  51.3923833  45.9236493   9.8201673  43.2003833  54.0496493
   9.8931673  43.3043833  54.9126493   9.1861673  43.7583833  53.8286493
   9.7371673  43.2983833  54.1446493  12.0881673  43.5193833  52.4146493
  12.4071673  44.3053833  52.6176493  11.7181673  43.2493833  53.1576493
  12.0811673  43.5953833  52.5546493  11.4021673  49.9433833  37.9446493
  11.7361673  49.1373833  37.9796493  10.6471673  49.8713833  38.3746493
  11.3401673  49.8133833  38.0136493  11.8841673  41.7773833  43.6036493
  11.1391673  41.4543833  43.9216493  11.8861673  42.6033833  43.8836493
  11.7741673  41.8513833  43.6916493  14.7861673  44.0613833  55.1496493
  14.7341673  43.7203833  54.3486493  15.5231673  44.5283833  55.1276493
  14.8871673  44.0803833  55.0276493  14.3241673  47.7373833  51.3556493
  14.9521673  47.1883833  51.0996493  14.2631673  48.3023833  50.6936493
  14.4081673  47.7403833  51.2196493   8.7761673  47.8183833  37.3476493
   9.4601673  47.3043833  37.1786493   8.3591673  47.8643833  36.5826493
   8.8151673  47.7493833  37.2096493   3.4581673  48.9683833  48.6516493
   3.1601673  49.5603833  49.2186493   3.5131673  49.4103833  47.9026493
   3.4221673  49.1213833  48.6246493  10.7961673  38.1073833  51.0646493
  11.5401673  38.5593833  51.0016493  10.2301673  38.5773833  50.5956493
  10.8231673  38.2443833  50.9866493   5.9741673  45.3913833  48.1426493
   6.4501673  45.7653833  48.7706493   5.1511673  45.5253833  48.4016493
   5.9231673  45.4663833  48.2736493   2.6841673  40.9943833  50.8836493
   2.8451673  40.2503833  51.3106493   2.6391673  40.7453833  50.0486493
   2.7011673  40.8473833  50.8236493   5.2381673  52.7843833  43.3706493
   5.7841673  53.4633833  43.4246493   4.8881673  52.8663833  42.5756493
   5.2671673  52.8973833  43.2606493  12.0811673  36.0873833  48.7346493
  11.8011673  36.9123833  48.6906493  12.7971673  36.1403833  49.2306493
  12.1461673  36.2173833  48.8016493   4.4361673  36.8023833  50.7636493
   5.1411673  37.1223833  50.3616493   4.6771673  35.9953833  50.9906493
   4.5751673  36.7303833  50.7376493   3.4211673  51.0123833  46.7596493
   2.7971673  51.5943833  46.5776493   3.6691673  50.7263833  45.9736493
   3.3651673  51.0563833  46.6166493   7.7301673  47.6463833  53.7486493
   8.4871673  47.9323833  53.4226493   7.1831673  47.6983833  53.0706493
   7.7611673  47.6963833  53.5996493  11.6391673  50.1963833  52.2526493
  11.9851673  50.4663833  53.0066493  11.9331673  50.7783833  51.6726493
  11.7341673  50.3223833  52.2786493  13.5021673  42.3423833  37.5916493
  13.8801673  43.0193833  37.1916493  12.6601673  42.5663833  37.6226493
  13.4331673  42.4753833  37.5366493   5.0151673  45.7883833  36.6746493
   4.2101673  45.6113833  36.3896493   4.9821673  46.6393833  36.8666493
   4.8911673  45.8873833  36.6616493   8.9611673  40.9573833  52.4166493
   8.3131673  41.4273833  52.7646493   9.5261673  40.8683833  53.0756493
   8.9491673  41.0133833  52.5656493   8.6491673  42.4943833  48.7146493
   8.9511673  42.9143833  49.4176493   8.6851673  41.6543833  48.9466493
   8.6991673  42.4323833  48.8526493   6.0741673  52.6613833  52.6396493
   6.5521673  52.0613833  52.2236493   5.7231673  52.2183833  53.3046493
   6.0931673  52.5073833  52.6766493  11.1971673  41.9413833  40.9666493
  11.4041673  41.7403833  41.7906493  11.9531673  42.2093833  40.6246493
  11.3391673  41.9513833  41.0376493   4.4921673  36.8403833  46.8716493
   3.6661673  36.6913833  47.1086493   4.4521673  36.8753833  46.0006493
   4.3641673  36.8233833  46.7776493  12.2191673  38.0243833  42.4406493
  11.5051673  37.5533833  42.6116493  12.0571673  38.3653833  41.6546493
  12.0901673  38.0053833  42.3496493  12.6621673  45.9683833  40.8206493
  13.1381673  45.2393833  40.7726493  11.8411673  45.6823833  40.7446493
  12.6111673  45.8183833  40.8016493   6.1331673  47.8803833  51.6596493
   5.3381673  47.8163833  52.0106493   6.2041673  48.7273833  51.4646493
   6.0261673  47.9953833  51.6826493   1.9631673  54.0873833  46.9766493
   1.9741673  54.1463833  47.8466493   1.5381673  53.3403833  46.8266493
   1.9021673  53.9853833  47.0826493   8.8781673  47.1353833  43.1756493
   8.9541673  47.4763833  43.9746493   9.0471673  46.2883833  43.2966493
   8.9141673  47.0603833  43.3116493   6.4001673  46.4093833  42.7406493
   6.1021673  46.0943833  43.4976493   7.0951673  46.8823833  42.9756493
   6.4591673  46.4323833  42.8876493   6.6221673  50.5273833  50.7676493
   7.3091673  50.4133833  51.2926493   6.7561673  51.3183833  50.4236493
   6.7431673  50.6273833  50.7946493  14.7981673  43.1363833  52.5786493
  13.9431673  43.0143833  52.7046493  14.9511673  42.7413833  51.8156493
  14.6941673  43.0593833  52.4846493   9.3111673  43.8013833  51.1546493
   9.0561673  43.0823833  51.5766493  10.1321673  43.9173833  51.4246493
   9.3951673  43.7123833  51.2566493   7.2451673  44.9913833  54.3416493
   7.5681673  45.6773833  53.9096493   6.5411673  45.3143833  54.7436493
   7.1881673  45.1403833  54.3366493  10.3291673  53.3653833  45.2706493
   9.8781673  54.0083833  45.6496493  11.0371673  53.2863833  45.7756493
  10.3671673  53.4483833  45.4016493   7.0301673  48.4553833  48.2006493
   6.3361673  48.8573833  48.5436493   7.7071673  48.8883833  48.5396493
   7.0271673  48.5783833  48.3016493  12.4071673  51.0483833  54.7806493
  13.1831673  50.6583833  54.8636493  11.9381673  50.7123833  55.4356493
  12.4521673  50.9413833  54.8896493  13.4321673  43.0813833  40.2626493
  13.5351673  43.0233833  39.3986493  14.1731673  42.7493833  40.5806493
  13.5571673  43.0243833  40.1816493   7.3521673  50.0463833  41.3696493
   7.1471673  50.8793833  41.2106493   6.5771673  49.6643833  41.4916493
   7.2071673  50.1133833  41.3646493  12.5341673  43.2273833  49.6186493
  12.5321673  42.3643833  49.7426493  12.6011673  43.5513833  50.4256493
  12.5441673  43.1473833  49.7556493   8.4131673  38.0273833  53.4006493
   8.5051673  38.7393833  53.8946493   7.7761673  37.5823833  53.7976493
   8.3321673  38.0663833  53.5326493   7.4071673  38.2173833  44.2546493
   6.7071673  38.7353833  44.1986493   7.4451673  37.8373833  43.4706493
   7.3091673  38.2383833  44.1306493   2.7141673  50.3083833  37.7786493
   3.1551673  50.3883833  38.5266493   1.9091673  50.0923833  38.0366493
   2.6601673  50.2883833  37.9276493  11.0051673  38.7333833  47.0546493
  11.8601673  38.8323833  47.1996493  10.6361673  39.2863833  47.6196493
  11.0771673  38.8303833  47.1596493   2.0331673  44.9593833  51.4316493
   1.6371673  45.7333833  51.5066493   1.6271673  44.5863833  50.7556493
   1.9151673  45.0183833  51.3426493  11.3091673  44.0133833  45.5456493
  11.9751673  44.5543833  45.7056493  10.9641673  44.3243833  44.8066493
  11.3561673  44.1393833  45.4606493  11.6221673  52.0793833  41.3526493
  11.4481673  51.4253833  41.9026493  12.3351673  51.8083833  40.9296493
  11.7021673  51.9423833  41.3716493   2.8621673  47.6233833  37.1226493
   2.0441673  47.3553833  37.2626493   2.8341673  48.4753833  37.3076493
   2.7371673  47.7103833  37.1706493   2.4621673  37.9363833  48.8816493
   1.5981673  38.0203833  48.9616493   2.6821673  37.4223833  49.5506493
   2.3671673  37.8733833  48.9926493  14.4801673  36.5713833  50.2106493
  14.4281673  36.5273833  51.0806493  15.1671673  36.0683833  50.0206493
  14.5741673  36.4913833  50.3106493   6.5651673  38.6843833  47.2556493
   5.8281673  38.2303833  47.3686493   7.1361673  38.2823833  47.7786493
   6.5401673  38.5573833  47.3496493   9.2971673  49.5323833  49.0436493
   9.5031673  49.8333833  49.8356493   9.2361673  50.2543833  48.5586493
   9.3181673  49.6833833  49.0886493   8.8311673  53.7463833  53.2896493
   8.0781673  53.7283833  52.8486493   8.9991673  54.5983833  53.3736493
   8.7451673  53.8693833  53.2366493   4.0681673  43.0133833  52.4596493
   3.7461673  42.4373833  51.8896493   3.7091673  43.7683833  52.2136493
   3.9681673  43.0393833  52.3396493   4.8641673  36.2653833  37.0866493
   4.9421673  36.5123833  36.2536493   4.1211673  36.6423833  37.3446493
   4.7661673  36.3573833  37.0016493  14.1091673  48.1713833  48.5016493
  14.0771673  47.3093833  48.3666493  13.4161673  48.4733833  48.0676493
  14.0021673  48.0883833  48.4176493   2.5031673  53.3693833  52.7076493
   2.5441673  53.4953833  53.5706493   3.1541673  52.8093833  52.5516493
   2.6051673  53.3053833  52.8126493  12.2141673  51.4313833  47.2986493
  12.7411673  51.3483833  46.6076493  11.8231673  50.6533833  47.3526493
  12.2341673  51.3043833  47.2046493   8.7281673  36.8753833  46.5066493
   9.3981673  37.4193833  46.6336493   8.2251673  37.2993833  45.9336493
   8.7531673  37.0183833  46.4406493   8.0871673  42.6833833  43.9996493
   8.6381673  42.0763833  44.2996493   7.6621673  42.9463833  44.7146493
   8.1061673  42.6323833  44.1486493  10.0571673  44.5143833  40.5616493
  10.1251673  43.6643833  40.7426493   9.2341673  44.6003833  40.2836493
   9.9451673  44.4013833  40.5476493   3.9761673  45.4053833  39.4996493
   4.0761673  45.5443833  38.6446493   4.7941673  45.3453833  39.7956493
   4.1111673  45.4163833  39.4166493  13.1361673  53.4693833  36.9796493
  13.7731673  53.3353833  37.5606493  12.7951673  52.6753833  36.8626493
  13.1801673  53.3323833  37.0476493  13.3311673  45.8873833  53.7126493
  13.9651673  45.7173833  54.2866493  13.7481673  46.2903833  53.0606493
  13.4861673  45.9223833  53.7016493   9.2111673  49.7343833  39.3016493
   8.9601673  49.6063833  40.1276493   8.8941673  49.0393833  38.8806493
   9.1271673  49.6133833  39.3616493  13.9561673  40.4513833  54.4506493
  13.7601673  41.0953833  55.0056493  13.2341673  39.9613833  54.4426493
  13.8211673  40.4743833  54.5316493  13.8551673  41.3923833  47.4216493
  13.0221673  41.6423833  47.3496493  13.7991673  40.5523833  47.6506493
  13.7241673  41.3053833  47.4446493   3.1151673  38.3803833  52.6156493
   3.3491673  37.8043833  52.0026493   2.2731673  38.1993833  52.7566493
   3.0251673  38.2683833  52.5456493  10.7421673  45.9983833  55.0676493
  11.6131673  45.9623833  55.0316493  10.5231673  46.4183833  54.3356493
  10.8391673  46.0543833  54.9546493   6.0971673  47.9423833  38.7316493
   6.8141673  47.5953833  38.3756493   6.0631673  48.7423833  38.3836493
   6.1981673  48.0093833  38.6276493   7.5061673  36.5833833  22.9704083
   7.2611673  37.0713833  22.2904083   8.3691673  36.5103833  22.8704083
   7.5971673  36.6443833  22.8554083   7.3151673  43.4993833  27.6414083
   6.7911673  44.0953833  28.0044083   7.7121673  43.1313833  28.3254083
   7.2961673  43.5333833  27.7964083  13.4591673  50.9403833  20.6124083
  14.1601673  50.4213833  20.6084083  12.8721673  50.4953833  20.1434083
  13.4761673  50.7973833  20.5424083   9.9861673  44.5663833  24.3174083
  10.0661673  44.5703833  23.4484083   9.4021673  43.9343833  24.4664083
   9.9111673  44.4733833  24.2114083   3.9751673  37.6703833  22.1254083
   3.9051673  38.3473833  21.5794083   4.7161673  37.2823833  21.8764083
   4.0741673  37.7133833  22.0074083   3.6981673  47.8993833  34.4194083
   3.4621673  47.8963833  35.2594083   2.9501673  47.7513833  33.9954083
   3.5521673  47.8763833  34.4804083   3.0781673  40.5053833  28.9014083
   3.7561673  40.5233833  28.3524083   3.0331673  39.6693833  29.1464083
   3.1711673  40.3843833  28.8564083   3.6801673  51.0913833  31.6824083
   3.8181673  51.8513833  31.2754083   4.4711673  50.7263833  31.7094083
   3.8171673  51.1503833  31.6264083   4.7751673  48.9763833  26.1874083
   5.1231673  48.1773833  26.2174083   5.4401673  49.4803833  25.9324083
   4.9251673  48.9323833  26.1544083   4.8321673  48.4253833  22.3984083
   5.1631673  47.7813833  22.8844083   5.0721673  48.2143833  21.5874083
   4.9161673  48.2993833  22.3504083   6.8001673  42.5563833  33.7374083
   5.9521673  42.4573833  33.5594083   6.8291673  43.3013833  34.1914083
   6.6791673  42.6523833  33.7784083  11.3581673  35.5163833  32.8514083
  11.2001673  36.2853833  32.4694083  10.5861673  35.2963833  33.1954083
  11.2201673  35.5973833  32.8464083   4.1471673  37.2313833  25.0664083
   4.2201673  38.0913833  25.1954083   4.1091673  37.1563833  24.1984083
   4.1521673  37.3473833  24.9574083   8.8201673  40.1573833  17.3654083
   8.3701673  40.8383833  17.6724083   8.9341673  39.6533833  18.0684083
   8.7711673  40.1833833  17.5144083   2.7761673  50.2103833  21.9474083
   2.1971673  49.9353833  22.5394083   3.4001673  49.6013833  21.9724083
   2.7831673  50.0803833  22.0384083   8.9191673  52.4983833  19.4694083
   9.6461673  52.9703833  19.5714083   9.1481673  51.7043833  19.7494083
   9.0611673  52.4513833  19.5264083   7.0871673  52.8903833  21.4594083
   7.3011673  53.4173833  22.1214083   7.8541673  52.7163833  21.0804083
   7.2321673  52.9423833  21.5014083   3.3611673  39.6063833  36.3564083
   3.4781673  39.1523833  35.6204083   3.6491673  40.4043833  36.1534083
   3.4211673  39.6573833  36.2174083  14.2141673  40.1303833  23.6604083
  13.8681673  40.8083833  24.0864083  13.5781673  39.5323833  23.6764083
  14.0691673  40.1423833  23.7254083   9.5261673  52.9003833  29.7644083
  10.2701673  53.3563833  29.7544083   9.4051673  52.6863833  28.9274083
   9.6181673  52.9363833  29.6394083   2.5301673  52.3753833  25.1944083
   3.3741673  52.4793833  24.9994083   2.2331673  53.1933833  25.2624083
   2.6111673  52.5113833  25.1754083   5.7431673  36.8463833  34.5084083
   5.9211673  36.0373833  34.2334083   5.6001673  37.2873833  33.7694083
   5.7481673  36.7923833  34.3584083   6.3371673  41.7723833  23.2814083
   6.6241673  41.5403833  22.4914083   7.0691673  41.8513833  23.7504083
   6.4871673  41.7493833  23.2344083   7.0591673  42.1113833  18.4024083
   7.3401673  42.8993833  18.6514083   6.2831673  42.2763833  18.0394083
   6.9861673  42.2523833  18.3854083  11.1001673  54.0853833  19.8694083
  11.7651673  53.9373833  19.3244083  11.4601673  54.0023833  20.6594083
  11.2521673  54.0513833  19.9054083  13.8891673  38.4533833  29.0294083
  14.6461673  38.5253833  28.6014083  13.9521673  37.6803833  29.4284083
  14.0101673  38.3503833  29.0244083   8.7801673  50.0853833  33.4684083
   8.7461673  50.4673833  34.2524083   9.6341673  50.0433833  33.2974083
   8.9011673  50.1353833  33.5594083   5.9181673  50.2823833  18.2184083
   5.7371673  50.8273833  18.8754083   6.6841673  50.5723833  17.9174083
   6.0041673  50.4063833  18.2714083   9.4251673  38.1783833  19.2724083
   9.9651673  37.4963833  19.3484083   9.4871673  38.5763833  20.0464083
   9.5141673  38.1363833  19.3984083   6.6831673  40.5543833  20.5864083
   6.1751673  39.8923833  20.3324083   6.7351673  41.0583833  19.8764083
   6.6161673  40.5313833  20.4444083   7.2321673  53.2493833  30.9664083
   8.0001673  53.1693833  30.5604083   6.6491673  53.1283833  30.3284083
   7.2591673  53.2193833  30.8124083   6.6831673  37.4953833  20.4774083
   6.2281673  37.0933833  19.8514083   7.4561673  37.6503833  20.1024083
   6.7301673  37.4593833  20.3294083  13.5091673  53.8523833  23.8674083
  13.0541673  54.5693833  24.0684083  12.8951673  53.2813833  23.6254083
  13.3511673  53.8743833  23.8614083   5.2811673  39.8623833  24.9994083
   5.3551673  40.4303833  24.3414083   5.4021673  40.3543833  25.7094083
   5.3091673  40.0193833  25.0074083  10.5061673  49.6973833  23.4114083
  11.2071673  49.2153833  23.6004083   9.8461673  49.1283833  23.4564083
  10.5121673  49.5423833  23.4454083   2.8451673  46.1183833  27.3724083
   3.0171673  45.9083833  28.2014083   2.1901673  45.5843833  27.1564083
   2.7741673  46.0083833  27.4634083   9.0731673  40.0323833  30.8874083
   8.9781673  40.3513833  31.6934083   8.4801673  39.3933833  30.8494083
   8.9711673  39.9843833  31.0014083   3.5951673  46.0563833  29.9624083
   3.6481673  46.9033833  30.1644083   3.3101673  45.6863833  30.6994083
   3.5611673  46.1263833  30.1004083   9.7721673  46.7513833  29.0924083
   9.2581673  46.3393833  29.6634083   9.6461673  47.5953833  29.2734083
   9.6781673  46.8153833  29.2034083  10.3291673  35.9763833  23.7234083
  10.3781673  35.6583833  24.5344083  10.6521673  35.3323833  23.2304083
  10.3841673  35.8343833  23.7704083  12.7931673  40.2123833  32.0314083
  13.5651673  39.9873833  32.3684083  12.3181673  40.4293833  32.7314083
  12.8371673  40.2113833  32.1844083  13.0251673  47.1903833  19.2194083
  13.1441673  46.9033833  20.0344083  13.8321673  47.2113833  18.8894083
  13.1611673  47.1513833  19.2914083  15.2591673  51.6993833  33.4734083
  14.5771673  52.0093833  33.0264083  14.8901673  51.2413833  34.1184083
  15.1031673  51.6773833  33.5024083  10.9201673  43.7273833  18.8044083
  10.7001673  44.4583833  18.3824083  10.4721673  43.7783833  19.5514083
  10.8211673  43.8423833  18.8524083   2.5291673  46.9293833  22.7854083
   3.2421673  47.4243833  22.8754083   2.7511673  46.3623833  22.1594083
   2.6671673  46.9183833  22.7064083  15.1071673  38.5883833  18.2574083
  14.4451673  38.0203833  18.2804083  14.9141673  39.1003833  17.5774083
  14.9811673  38.5803833  18.1604083   4.3321673  42.2823833  36.2014083
   3.8481673  42.8593833  36.6434083   4.3041673  42.5773833  35.3804083
   4.2561673  42.4113833  36.1454083  15.4301673  42.9663833  30.8134083
  15.6451673  42.1663833  30.5374083  14.5801673  43.0263833  30.6244083
  15.3361673  42.8573833  30.7444083  13.1091673  38.1463833  20.5364083
  13.8551673  37.7393833  20.7354083  13.3721673  38.8613833  20.1114083
  13.2581673  38.1923833  20.5034083   7.0521673  50.6323833  25.1124083
   6.5291673  51.2663833  24.8194083   7.3621673  50.2683833  24.3834083
   7.0201673  50.6723833  24.9614083   9.5631673  40.4343833  25.6094083
   9.9071673  40.5863833  26.3964083   9.1101673  39.6963833  25.7224083
   9.5471673  40.3473833  25.7424083   4.0391673  39.6543833  20.0664083
   4.0371673  39.5373833  19.2014083   3.8581673  40.5023833  20.1584083
   4.0121673  39.7623833  19.9524083  13.0931673  52.0813833  31.5634083
  12.4221673  52.5953833  31.7814083  13.1561673  52.1813833  30.6994083
  13.0031673  52.1723833  31.4684083   1.7771673  49.6063833  24.6984083
   1.9031673  50.4493833  24.8854083   2.4451673  49.2073833  25.0944083
   1.8951673  49.6723833  24.7844083  10.8841673  41.7663833  28.1634083
  10.2221673  42.0943833  28.6264083  11.0711673  42.4003833  27.5944083
  10.8141673  41.9083833  28.1474083   5.0891673  52.8303833  29.1594083
   4.8121673  52.1893833  28.6364083   4.8811673  53.5563833  28.7214083
   5.0181673  52.8433833  29.0174083   7.5291673  37.6723833  31.5924083
   7.6781673  36.8473833  31.3494083   7.9081673  37.7273833  32.3764083
   7.6071673  37.5583833  31.6724083   9.0771673  39.7353833  21.6744083
   9.5671673  40.4523833  21.5974083   8.2871673  39.9963833  21.4114083
   9.0331673  39.8793833  21.6244083  10.3911673  47.6133833  33.5844083
  10.8751673  48.3313833  33.6824083  10.7851673  47.1863833  32.9334083
  10.5211673  47.6563833  33.5024083   4.6871673  50.4583833  34.7614083
   5.0411673  50.2803833  35.5384083   4.2511673  49.7293833  34.5624083
   4.6751673  50.3243833  34.8474083   5.6591673  41.2053833  27.3994083
   6.1391673  41.9043833  27.6074083   6.0321673  40.5583833  27.8504083
   5.7851673  41.2133833  27.4964083   7.8481673  44.3743833  19.6734083
   7.8401673  45.0963833  19.1834083   7.2091673  44.5093833  20.2504083
   7.7531673  44.5013833  19.6864083  12.8201673  48.2443833  23.6544083
  13.1761673  47.8943833  24.3694083  12.8121673  47.5833833  23.0844083
  12.8721673  48.0943833  23.6754083   8.8651673  51.3103833  27.4984083
   8.2621673  51.0143833  26.9414083   9.4101673  51.7623833  26.9894083
   8.8561673  51.3333833  27.3404083   8.8781673  48.1613833  26.8984083
   8.0811673  48.3853833  27.1724083   9.1361673  47.5673833  27.4834083
   8.7981673  48.1063833  27.0254083   2.7701673  52.9733833  21.3464083
   2.6231673  52.1973833  21.7174083   3.4591673  52.8263833  20.8314083
   2.8501673  52.8363833  21.3254083   2.4411673  36.7163833  19.3344083
   2.5381673  36.6093833  20.1954083   1.7331673  37.2223833  19.2694083
   2.3511673  36.7753833  19.4524083   5.0621673  52.4893833  19.7484083
   5.6841673  52.6523833  20.3384083   5.0981673  53.1803833  19.2164083
   5.1591673  52.6153833  19.7574083  12.1381673  46.1593833  31.7444083
  12.1931673  46.2843833  30.8824083  12.8911673  46.4793833  32.0464083
  12.2571673  46.2243833  31.6614083   8.3291673  51.5083833  36.0214083
   8.4931673  51.7913833  36.8304083   8.5921673  52.1693833  35.5164083
   8.3921673  51.6483833  36.0664083  13.1701673  36.4573833  34.7314083
  12.5331673  36.0573833  34.2894083  13.1961673  36.0263833  35.4894083
  13.0801673  36.3353833  34.7774083   7.8691673  45.9653833  31.3444083
   7.7141673  46.5753833  31.9484083   8.4031673  45.4073833  31.7504083
   7.9251673  45.9733833  31.4934083   6.2531673  44.3653833  22.0024083
   6.3121673  45.0153833  22.5814083   6.0641673  43.6693833  22.4934083
   6.2341673  44.3583833  22.1604083  11.4791673  48.6943833  27.8714083
  11.0001673  48.9923833  27.2054083  11.1231673  47.9183833  28.0494083
  11.3561673  48.6233833  27.7994083   5.4761673  46.4123833  26.4334083
   4.6291673  46.2183833  26.5144083   5.8001673  46.2473833  27.2264083
   5.3981673  46.3593833  26.5624083   2.2281673  53.1423833  17.3194083
   2.6671673  52.4453833  17.6074083   2.4351673  53.7663833  17.8924083
   2.3241673  53.1313833  17.4464083   2.5541673  41.2763833  25.4844083
   3.4001673  41.0863833  25.5824083   2.1841673  40.4993833  25.3464083
   2.6241673  41.1333833  25.4784083  15.1711673  52.8603833  19.8114083
  15.8651673  52.3933833  19.5634083  14.6321673  52.2623833  20.1484083
  15.1941673  52.7023833  19.8244083  12.4101673  45.6363833  28.9904083
  12.4031673  44.8603833  29.3884083  11.5691673  45.8703833  28.9834083
  12.2851673  45.5563833  29.0484083  13.6661673  45.7073833  26.4274083
  13.3801673  46.1083833  27.1474083  14.5261673  45.6453833  26.5544083
  13.7511673  45.7573833  26.5524083   3.3551673  42.5093833  20.3354083
   3.6271673  43.3353833  20.4024083   2.4921673  42.5843833  20.2394083
   3.2681673  42.6423833  20.3304083  11.3281673  39.6313833  34.9674083
  10.8031673  40.0903833  35.4914083  10.9671673  38.8363833  34.9614083
  11.1971673  39.5813833  35.0434083  14.7971673  51.3403833  26.9564083
  15.0871673  51.5973833  26.1754083  15.4921673  51.4363833  27.4754083
  14.9431673  51.3923833  26.9174083   9.8201673  43.2003833  35.0434083
   9.8931673  43.3043833  35.9064083   9.1861673  43.7583833  34.8224083
   9.7371673  43.2983833  35.1384083  12.0881673  43.5193833  33.4084083
  12.4071673  44.3053833  33.6114083  11.7181673  43.2493833  34.1514083
  12.0811673  43.5953833  33.5484083  11.4021673  49.9433833  18.9384083
  11.7361673  49.1373833  18.9734083  10.6471673  49.8713833  19.3684083
  11.3401673  49.8133833  19.0074083  11.8841673  41.7773833  24.5974083
  11.1391673  41.4543833  24.9154083  11.8861673  42.6033833  24.8774083
  11.7741673  41.8513833  24.6854083  14.7861673  44.0613833  36.1434083
  14.7341673  43.7203833  35.3424083  15.5231673  44.5283833  36.1214083
  14.8871673  44.0803833  36.0214083  14.3241673  47.7373833  32.3494083
  14.9521673  47.1883833  32.0934083  14.2631673  48.3023833  31.6874083
  14.4081673  47.7403833  32.2134083   8.7761673  47.8183833  18.3414083
   9.4601673  47.3043833  18.1724083   8.3591673  47.8643833  17.5764083
   8.8151673  47.7493833  18.2034083   3.4581673  48.9683833  29.6454083
   3.1601673  49.5603833  30.2124083   3.5131673  49.4103833  28.8964083
   3.4221673  49.1213833  29.6184083  10.7961673  38.1073833  32.0584083
  11.5401673  38.5593833  31.9954083  10.2301673  38.5773833  31.5894083
  10.8231673  38.2443833  31.9804083   5.9741673  45.3913833  29.1364083
   6.4501673  45.7653833  29.7644083   5.1511673  45.5253833  29.3954083
   5.9231673  45.4663833  29.2674083   2.6841673  40.9943833  31.8774083
   2.8451673  40.2503833  32.3044083   2.6391673  40.7453833  31.0424083
   2.7011673  40.8473833  31.8174083   5.2381673  52.7843833  24.3644083
   5.7841673  53.4633833  24.4184083   4.8881673  52.8663833  23.5694083
   5.2671673  52.8973833  24.2544083  12.0811673  36.0873833  29.7284083
  11.8011673  36.9123833  29.6844083  12.7971673  36.1403833  30.2244083
  12.1461673  36.2173833  29.7954083   4.4361673  36.8023833  31.7574083
   5.1411673  37.1223833  31.3554083   4.6771673  35.9953833  31.9844083
   4.5751673  36.7303833  31.7314083   3.4211673  51.0123833  27.7534083
   2.7971673  51.5943833  27.5714083   3.6691673  50.7263833  26.9674083
   3.3651673  51.0563833  27.6104083   7.7301673  47.6463833  34.7424083
   8.4871673  47.9323833  34.4164083   7.1831673  47.6983833  34.0644083
   7.7611673  47.6963833  34.5934083  11.6391673  50.1963833  33.2464083
  11.9851673  50.4663833  34.0004083  11.9331673  50.7783833  32.6664083
  11.7341673  50.3223833  33.2724083  13.5021673  42.3423833  18.5854083
  13.8801673  43.0193833  18.1854083  12.6601673  42.5663833  18.6164083
  13.4331673  42.4753833  18.5304083   5.0151673  45.7883833  17.6684083
   4.2101673  45.6113833  17.3834083   4.9821673  46.6393833  17.8604083
   4.8911673  45.8873833  17.6554083   8.9611673  40.9573833  33.4104083
   8.3131673  41.4273833  33.7584083   9.5261673  40.8683833  34.0694083
   8.9491673  41.0133833  33.5594083   8.6491673  42.4943833  29.7084083
   8.9511673  42.9143833  30.4114083   8.6851673  41.6543833  29.9404083
   8.6991673  42.4323833  29.8464083   6.0741673  52.6613833  33.6334083
   6.5521673  52.0613833  33.2174083   5.7231673  52.2183833  34.2984083
   6.0931673  52.5073833  33.6704083  11.1971673  41.9413833  21.9604083
  11.4041673  41.7403833  22.7844083  11.9531673  42.2093833  21.6184083
  11.3391673  41.9513833  22.0314083   4.4921673  36.8403833  27.8654083
   3.6661673  36.6913833  28.1024083   4.4521673  36.8753833  26.9944083
   4.3641673  36.8233833  27.7714083  12.2191673  38.0243833  23.4344083
  11.5051673  37.5533833  23.6054083  12.0571673  38.3653833  22.6484083
  12.0901673  38.0053833  23.3434083  12.6621673  45.9683833  21.8144083
  13.1381673  45.2393833  21.7664083  11.8411673  45.6823833  21.7384083
  12.6111673  45.8183833  21.7954083   6.1331673  47.8803833  32.6534083
   5.3381673  47.8163833  33.0044083   6.2041673  48.7273833  32.4584083
   6.0261673  47.9953833  32.6764083   1.9631673  54.0873833  27.9704083
   1.9741673  54.1463833  28.8404083   1.5381673  53.3403833  27.8204083
   1.9021673  53.9853833  28.0764083   8.8781673  47.1353833  24.1694083
   8.9541673  47.4763833  24.9684083   9.0471673  46.2883833  24.2904083
   8.9141673  47.0603833  24.3054083   6.4001673  46.4093833  23.7344083
   6.1021673  46.0943833  24.4914083   7.0951673  46.8823833  23.9694083
   6.4591673  46.4323833  23.8814083   6.6221673  50.5273833  31.7614083
   7.3091673  50.4133833  32.2864083   6.7561673  51.3183833  31.4174083
   6.7431673  50.6273833  31.7884083  14.7981673  43.1363833  33.5724083
  13.9431673  43.0143833  33.6984083  14.9511673  42.7413833  32.8094083
  14.6941673  43.0593833  33.4784083   9.3111673  43.8013833  32.1484083
   9.0561673  43.0823833  32.5704083  10.1321673  43.9173833  32.4184083
   9.3951673  43.7123833  32.2504083   7.2451673  44.9913833  35.3354083
   7.5681673  45.6773833  34.9034083   6.5411673  45.3143833  35.7374083
   7.1881673  45.1403833  35.3304083  10.3291673  53.3653833  26.2644083
   9.8781673  54.0083833  26.6434083  11.0371673  53.2863833  26.7694083
  10.3671673  53.4483833  26.3954083   7.0301673  48.4553833  29.1944083
   6.3361673  48.8573833  29.5374083   7.7071673  48.8883833  29.5334083
   7.0271673  48.5783833  29.2954083  12.4071673  51.0483833  35.7744083
  13.1831673  50.6583833  35.8574083  11.9381673  50.7123833  36.4294083
  12.4521673  50.9413833  35.8834083  13.4321673  43.0813833  21.2564083
  13.5351673  43.0233833  20.3924083  14.1731673  42.7493833  21.5744083
  13.5571673  43.0243833  21.1754083   7.3521673  50.0463833  22.3634083
   7.1471673  50.8793833  22.2044083   6.5771673  49.6643833  22.4854083
   7.2071673  50.1133833  22.3584083  12.5341673  43.2273833  30.6124083
  12.5321673  42.3643833  30.7364083  12.6011673  43.5513833  31.4194083
  12.5441673  43.1473833  30.7494083   8.4131673  38.0273833  34.3944083
   8.5051673  38.7393833  34.8884083   7.7761673  37.5823833  34.7914083
   8.3321673  38.0663833  34.5264083   7.4071673  38.2173833  25.2484083
   6.7071673  38.7353833  25.1924083   7.4451673  37.8373833  24.4644083
   7.3091673  38.2383833  25.1244083   2.7141673  50.3083833  18.7724083
   3.1551673  50.3883833  19.5204083   1.9091673  50.0923833  19.0304083
   2.6601673  50.2883833  18.9214083  11.0051673  38.7333833  28.0484083
  11.8601673  38.8323833  28.1934083  10.6361673  39.2863833  28.6134083
  11.0771673  38.8303833  28.1534083   2.0331673  44.9593833  32.4254083
   1.6371673  45.7333833  32.5004083   1.6271673  44.5863833  31.7494083
   1.9151673  45.0183833  32.3364083  11.3091673  44.0133833  26.5394083
  11.9751673  44.5543833  26.6994083  10.9641673  44.3243833  25.8004083
  11.3561673  44.1393833  26.4544083  11.6221673  52.0793833  22.3464083
  11.4481673  51.4253833  22.8964083  12.3351673  51.8083833  21.9234083
  11.7021673  51.9423833  22.3654083   2.8621673  47.6233833  18.1164083
   2.0441673  47.3553833  18.2564083   2.8341673  48.4753833  18.3014083
   2.7371673  47.7103833  18.1644083   2.4621673  37.9363833  29.8754083
   1.5981673  38.0203833  29.9554083   2.6821673  37.4223833  30.5444083
   2.3671673  37.8733833  29.9864083  14.4801673  36.5713833  31.2044083
  14.4281673  36.5273833  32.0744083  15.1671673  36.0683833  31.0144083
  14.5741673  36.4913833  31.3044083   6.5651673  38.6843833  28.2494083
   5.8281673  38.2303833  28.3624083   7.1361673  38.2823833  28.7724083
   6.5401673  38.5573833  28.3434083   9.2971673  49.5323833  30.0374083
   9.5031673  49.8333833  30.8294083   9.2361673  50.2543833  29.5524083
   9.3181673  49.6833833  30.0824083   8.8311673  53.7463833  34.2834083
   8.0781673  53.7283833  33.8424083   8.9991673  54.5983833  34.3674083
   8.7451673  53.8693833  34.2304083   4.0681673  43.0133833  33.4534083
   3.7461673  42.4373833  32.8834083   3.7091673  43.7683833  33.2074083
   3.9681673  43.0393833  33.3334083   4.8641673  36.2653833  18.0804083
   4.9421673  36.5123833  17.2474083   4.1211673  36.6423833  18.3384083
   4.7661673  36.3573833  17.9954083  14.1091673  48.1713833  29.4954083
  14.0771673  47.3093833  29.3604083  13.4161673  48.4733833  29.0614083
  14.0021673  48.0883833  29.4114083   2.5031673  53.3693833  33.7014083
   2.5441673  53.4953833  34.5644083   3.1541673  52.8093833  33.5454083
   2.6051673  53.3053833  33.8064083  12.2141673  51.4313833  28.2924083
  12.7411673  51.3483833  27.6014083  11.8231673  50.6533833  28.3464083
  12.2341673  51.3043833  28.1984083   8.7281673  36.8753833  27.5004083
   9.3981673  37.4193833  27.6274083   8.2251673  37.2993833  26.9274083
   8.7531673  37.0183833  27.4344083   8.0871673  42.6833833  24.9934083
   8.6381673  42.0763833  25.2934083   7.6621673  42.9463833  25.7084083
   8.1061673  42.6323833  25.1424083  10.0571673  44.5143833  21.5554083
  10.1251673  43.6643833  21.7364083   9.2341673  44.6003833  21.2774083
   9.9451673  44.4013833  21.5414083   3.9761673  45.4053833  20.4934083
   4.0761673  45.5443833  19.6384083   4.7941673  45.3453833  20.7894083
   4.1111673  45.4163833  20.4104083  13.1361673  53.4693833  17.9734083
  13.7731673  53.3353833  18.5544083  12.7951673  52.6753833  17.8564083
  13.1801673  53.3323833  18.0414083  13.3311673  45.8873833  34.7064083
  13.9651673  45.7173833  35.2804083  13.7481673  46.2903833  34.0544083
  13.4861673  45.9223833  34.6954083   9.2111673  49.7343833  20.2954083
   8.9601673  49.6063833  21.1214083   8.8941673  49.0393833  19.8744083
   9.1271673  49.6133833  20.3554083  13.9561673  40.4513833  35.4444083
  13.7601673  41.0953833  35.9994083  13.2341673  39.9613833  35.4364083
  13.8211673  40.4743833  35.5254083  13.8551673  41.3923833  28.4154083
  13.0221673  41.6423833  28.3434083  13.7991673  40.5523833  28.6444083
  13.7241673  41.3053833  28.4384083   3.1151673  38.3803833  33.6094083
   3.3491673  37.8043833  32.9964083   2.2731673  38.1993833  33.7504083
   3.0251673  38.2683833  33.5394083  10.7421673  45.9983833  36.0614083
  11.6131673  45.9623833  36.0254083  10.5231673  46.4183833  35.3294083
  10.8391673  46.0543833  35.9484083   6.0971673  47.9423833  19.7254083
   6.8141673  47.5953833  19.3694083   6.0631673  48.7423833  19.3774083
   6.1981673  48.0093833  19.6214083   7.5061673  36.5833833   3.9641673
   7.2611673  37.0713833   3.2841673   8.3691673  36.5103833   3.8641673
   7.5971673  36.6443833   3.8491673   7.3151673  43.4993833   8.6351673
   6.7911673  44.0953833   8.9981673   7.7121673  43.1313833   9.3191673
   7.2961673  43.5333833   8.7901673   9.9861673  44.5663833   5.3111673
  10.0661673  44.5703833   4.4421673   9.4021673  43.9343833   5.4601673
   9.9111673  44.4733833   5.2051673   3.9751673  37.6703833   3.1191673
   3.9051673  38.3473833   2.5731673   4.7161673  37.2823833   2.8701673
   4.0741673  37.7133833   3.0011673   3.6981673  47.8993833  15.4131673
   3.4621673  47.8963833  16.2531673   2.9501673  47.7513833  14.9891673
   3.5521673  47.8763833  15.4741673   3.0781673  40.5053833   9.8951673
   3.7561673  40.5233833   9.3461673   3.0331673  39.6693833  10.1401673
   3.1711673  40.3843833   9.8501673   3.6801673  51.0913833  12.6761673
   3.8181673  51.8513833  12.2691673   4.4711673  50.7263833  12.7031673
   3.8171673  51.1503833  12.6201673   4.7751673  48.9763833   7.1811673
   5.1231673  48.1773833   7.2111673   5.4401673  49.4803833   6.9261673
   4.9251673  48.9323833   7.1481673   4.8321673  48.4253833   3.3921673
   5.1631673  47.7813833   3.8781673   5.0721673  48.2143833   2.5811673
   4.9161673  48.2993833   3.3441673   6.8001673  42.5563833  14.7311673
   5.9521673  42.4573833  14.5531673   6.8291673  43.3013833  15.1851673
   6.6791673  42.6523833  14.7721673  11.3581673  35.5163833  13.8451673
  11.2001673  36.2853833  13.4631673  10.5861673  35.2963833  14.1891673
  11.2201673  35.5973833  13.8401673   4.1471673  37.2313833   6.0601673
   4.2201673  38.0913833   6.1891673   4.1091673  37.1563833   5.1921673
   4.1521673  37.3473833   5.9511673   2.7761673  50.2103833   2.9411673
   2.1971673  49.9353833   3.5331673   3.4001673  49.6013833   2.9661673
   2.7831673  50.0803833   3.0321673   7.0871673  52.8903833   2.4531673
   7.3011673  53.4173833   3.1151673   7.8541673  52.7163833   2.0741673
   7.2321673  52.9423833   2.4951673   3.3611673  39.6063833  17.3501673
   3.4781673  39.1523833  16.6141673   3.6491673  40.4043833  17.1471673
   3.4211673  39.6573833  17.2111673  14.2141673  40.1303833   4.6541673
  13.8681673  40.8083833   5.0801673  13.5781673  39.5323833   4.6701673
  14.0691673  40.1423833   4.7191673   9.5261673  52.9003833  10.7581673
  10.2701673  53.3563833  10.7481673   9.4051673  52.6863833   9.9211673
   9.6181673  52.9363833  10.6331673   2.5301673  52.3753833   6.1881673
   3.3741673  52.4793833   5.9931673   2.2331673  53.1933833   6.2561673
   2.6111673  52.5113833   6.1691673   5.7431673  36.8463833  15.5021673
   5.9211673  36.0373833  15.2271673   5.6001673  37.2873833  14.7631673
   5.7481673  36.7923833  15.3521673   6.3371673  41.7723833   4.2751673
   6.6241673  41.5403833   3.4851673   7.0691673  41.8513833   4.7441673
   6.4871673  41.7493833   4.2281673  13.8891673  38.4533833  10.0231673
  14.6461673  38.5253833   9.5951673  13.9521673  37.6803833  10.4221673
  14.0101673  38.3503833  10.0181673   8.7801673  50.0853833  14.4621673
   8.7461673  50.4673833  15.2461673   9.6341673  50.0433833  14.2911673
   8.9011673  50.1353833  14.5531673   7.2321673  53.2493833  11.9601673
   8.0001673  53.1693833  11.5541673   6.6491673  53.1283833  11.3221673
   7.2591673  53.2193833  11.8061673  13.5091673  53.8523833   4.8611673
  13.0541673  54.5693833   5.0621673  12.8951673  53.2813833   4.6191673
  13.3511673  53.8743833   4.8551673   5.2811673  39.8623833   5.9931673
   5.3551673  40.4303833   5.3351673   5.4021673  40.3543833   6.7031673
   5.3091673  40.0193833   6.0011673  10.5061673  49.6973833   4.4051673
  11.2071673  49.2153833   4.5941673   9.8461673  49.1283833   4.4501673
  10.5121673  49.5423833   4.4391673   2.8451673  46.1183833   8.3661673
   3.0171673  45.9083833   9.1951673   2.1901673  45.5843833   8.1501673
   2.7741673  46.0083833   8.4571673   9.0731673  40.0323833  11.8811673
   8.9781673  40.3513833  12.6871673   8.4801673  39.3933833  11.8431673
   8.9711673  39.9843833  11.9951673   3.5951673  46.0563833  10.9561673
   3.6481673  46.9033833  11.1581673   3.3101673  45.6863833  11.6931673
   3.5611673  46.1263833  11.0941673   9.7721673  46.7513833  10.0861673
   9.2581673  46.3393833  10.6571673   9.6461673  47.5953833  10.2671673
   9.6781673  46.8153833  10.1971673  10.3291673  35.9763833   4.7171673
  10.3781673  35.6583833   5.5281673  10.6521673  35.3323833   4.2241673
  10.3841673  35.8343833   4.7641673  12.7931673  40.2123833  13.0251673
  13.5651673  39.9873833  13.3621673  12.3181673  40.4293833  13.7251673
  12.8371673  40.2113833  13.1781673  15.2591673  51.6993833  14.4671673
  14.5771673  52.0093833  14.0201673  14.8901673  51.2413833  15.1121673
  15.1031673  51.6773833  14.4961673   2.5291673  46.9293833   3.7791673
   3.2421673  47.4243833   3.8691673   2.7511673  46.3623833   3.1531673
   2.6671673  46.9183833   3.7001673   4.3321673  42.2823833  17.1951673
   3.8481673  42.8593833  17.6371673   4.3041673  42.5773833  16.3741673
   4.2561673  42.4113833  17.1391673  15.4301673  42.9663833  11.8071673
  15.6451673  42.1663833  11.5311673  14.5801673  43.0263833  11.6181673
  15.3361673  42.8573833  11.7381673   7.0521673  50.6323833   6.1061673
   6.5291673  51.2663833   5.8131673   7.3621673  50.2683833   5.3771673
   7.0201673  50.6723833   5.9551673   9.5631673  40.4343833   6.6031673
   9.9071673  40.5863833   7.3901673   9.1101673  39.6963833   6.7161673
   9.5471673  40.3473833   6.7361673  13.0931673  52.0813833  12.5571673
  12.4221673  52.5953833  12.7751673  13.1561673  52.1813833  11.6931673
  13.0031673  52.1723833  12.4621673   1.7771673  49.6063833   5.6921673
   1.9031673  50.4493833   5.8791673   2.4451673  49.2073833   6.0881673
   1.8951673  49.6723833   5.7781673  10.8841673  41.7663833   9.1571673
  10.2221673  42.0943833   9.6201673  11.0711673  42.4003833   8.5881673
  10.8141673  41.9083833   9.1411673   5.0891673  52.8303833  10.1531673
   4.8121673  52.1893833   9.6301673   4.8811673  53.5563833   9.7151673
   5.0181673  52.8433833  10.0111673   7.5291673  37.6723833  12.5861673
   7.6781673  36.8473833  12.3431673   7.9081673  37.7273833  13.3701673
   7.6071673  37.5583833  12.6661673   9.0771673  39.7353833   2.6681673
   9.5671673  40.4523833   2.5911673   8.2871673  39.9963833   2.4051673
   9.0331673  39.8793833   2.6181673  10.3911673  47.6133833  14.5781673
  10.8751673  48.3313833  14.6761673  10.7851673  47.1863833  13.9271673
  10.5211673  47.6563833  14.4961673   4.6871673  50.4583833  15.7551673
   5.0411673  50.2803833  16.5321673   4.2511673  49.7293833  15.5561673
   4.6751673  50.3243833  15.8411673   5.6591673  41.2053833   8.3931673
   6.1391673  41.9043833   8.6011673   6.0321673  40.5583833   8.8441673
   5.7851673  41.2133833   8.4901673  12.8201673  48.2443833   4.6481673
  13.1761673  47.8943833   5.3631673  12.8121673  47.5833833   4.0781673
  12.8721673  48.0943833   4.6691673   8.8651673  51.3103833   8.4921673
   8.2621673  51.0143833   7.9351673   9.4101673  51.7623833   7.9831673
   8.8561673  51.3333833   8.3341673   8.8781673  48.1613833   7.8921673
   8.0811673  48.3853833   8.1661673   9.1361673  47.5673833   8.4771673
   8.7981673  48.1063833   8.0191673   2.7701673  52.9733833   2.3401673
   2.6231673  52.1973833   2.7111673   3.4591673  52.8263833   1.8251673
   2.8501673  52.8363833   2.3191673  12.1381673  46.1593833  12.7381673
  12.1931673  46.2843833  11.8761673  12.8911673  46.4793833  13.0401673
  12.2571673  46.2243833  12.6551673   8.3291673  51.5083833  17.0151673
   8.4931673  51.7913833  17.8241673   8.5921673  52.1693833  16.5101673
   8.3921673  51.6483833  17.0601673  13.1701673  36.4573833  15.7251673
  12.5331673  36.0573833  15.2831673  13.1961673  36.0263833  16.4831673
  13.0801673  36.3353833  15.7711673   7.8691673  45.9653833  12.3381673
   7.7141673  46.5753833  12.9421673   8.4031673  45.4073833  12.7441673
   7.9251673  45.9733833  12.4871673   6.2531673  44.3653833   2.9961673
   6.3121673  45.0153833   3.5751673   6.0641673  43.6693833   3.4871673
   6.2341673  44.3583833   3.1541673  11.4791673  48.6943833   8.8651673
  11.0001673  48.9923833   8.1991673  11.1231673  47.9183833   9.0431673
  11.3561673  48.6233833   8.7931673   5.4761673  46.4123833   7.4271673
   4.6291673  46.2183833   7.5081673   5.8001673  46.2473833   8.2201673
   5.3981673  46.3593833   7.5561673   2.5541673  41.2763833   6.4781673
   3.4001673  41.0863833   6.5761673   2.1841673  40.4993833   6.3401673
   2.6241673  41.1333833   6.4721673  12.4101673  45.6363833   9.9841673
  12.4031673  44.8603833  10.3821673  11.5691673  45.8703833   9.9771673
  12.2851673  45.5563833  10.0421673  13.6661673  45.7073833   7.4211673
  13.3801673  46.1083833   8.1411673  14.5261673  45.6453833   7.5481673
  13.7511673  45.7573833   7.5461673  11.3281673  39.6313833  15.9611673
  10.8031673  40.0903833  16.4851673  10.9671673  38.8363833  15.9551673
  11.1971673  39.5813833  16.0371673  14.7971673  51.3403833   7.9501673
  15.0871673  51.5973833   7.1691673  15.4921673  51.4363833   8.4691673
  14.9431673  51.3923833   7.9111673   9.8201673  43.2003833  16.0371673
   9.8931673  43.3043833  16.9001673   9.1861673  43.7583833  15.8161673
   9.7371673  43.2983833  16.1321673  12.0881673  43.5193833  14.4021673
  12.4071673  44.3053833  14.6051673  11.7181673  43.2493833  15.1451673
  12.0811673  43.5953833  14.5421673  11.8841673  41.7773833   5.5911673
  11.1391673  41.4543833   5.9091673  11.8861673  42.6033833   5.8711673
  11.7741673  41.8513833   5.6791673  14.7861673  44.0613833  17.1371673
  14.7341673  43.7203833  16.3361673  15.5231673  44.5283833  17.1151673
  14.8871673  44.0803833  17.0151673  14.3241673  47.7373833  13.3431673
  14.9521673  47.1883833  13.0871673  14.2631673  48.3023833  12.6811673
  14.4081673  47.7403833  13.2071673   3.4581673  48.9683833  10.6391673
   3.1601673  49.5603833  11.2061673   3.5131673  49.4103833   9.8901673
   3.4221673  49.1213833  10.6121673  10.7961673  38.1073833  13.0521673
  11.5401673  38.5593833  12.9891673  10.2301673  38.5773833  12.5831673
  10.8231673  38.2443833  12.9741673   5.9741673  45.3913833  10.1301673
   6.4501673  45.7653833  10.7581673   5.1511673  45.5253833  10.3891673
   5.9231673  45.4663833  10.2611673   2.6841673  40.9943833  12.8711673
   2.8451673  40.2503833  13.2981673   2.6391673  40.7453833  12.0361673
   2.7011673  40.8473833  12.8111673   5.2381673  52.7843833   5.3581673
   5.7841673  53.4633833   5.4121673   4.8881673  52.8663833   4.5631673
   5.2671673  52.8973833   5.2481673  12.0811673  36.0873833  10.7221673
  11.8011673  36.9123833  10.6781673  12.7971673  36.1403833  11.2181673
  12.1461673  36.2173833  10.7891673   4.4361673  36.8023833  12.7511673
   5.1411673  37.1223833  12.3491673   4.6771673  35.9953833  12.9781673
   4.5751673  36.7303833  12.7251673   3.4211673  51.0123833   8.7471673
   2.7971673  51.5943833   8.5651673   3.6691673  50.7263833   7.9611673
   3.3651673  51.0563833   8.6041673   7.7301673  47.6463833  15.7361673
   8.4871673  47.9323833  15.4101673   7.1831673  47.6983833  15.0581673
   7.7611673  47.6963833  15.5871673  11.6391673  50.1963833  14.2401673
  11.9851673  50.4663833  14.9941673  11.9331673  50.7783833  13.6601673
  11.7341673  50.3223833  14.2661673   8.9611673  40.9573833  14.4041673
   8.3131673  41.4273833  14.7521673   9.5261673  40.8683833  15.0631673
   8.9491673  41.0133833  14.5531673   8.6491673  42.4943833  10.7021673
   8.9511673  42.9143833  11.4051673   8.6851673  41.6543833  10.9341673
   8.6991673  42.4323833  10.8401673   6.0741673  52.6613833  14.6271673
   6.5521673  52.0613833  14.2111673   5.7231673  52.2183833  15.2921673
   6.0931673  52.5073833  14.6641673  11.1971673  41.9413833   2.9541673
  11.4041673  41.7403833   3.7781673  11.9531673  42.2093833   2.6121673
  11.3391673  41.9513833   3.0251673   4.4921673  36.8403833   8.8591673
   3.6661673  36.6913833   9.0961673   4.4521673  36.8753833   7.9881673
   4.3641673  36.8233833   8.7651673  12.2191673  38.0243833   4.4281673
  11.5051673  37.5533833   4.5991673  12.0571673  38.3653833   3.6421673
  12.0901673  38.0053833   4.3371673  12.6621673  45.9683833   2.8081673
  13.1381673  45.2393833   2.7601673  11.8411673  45.6823833   2.7321673
  12.6111673  45.8183833   2.7891673   6.1331673  47.8803833  13.6471673
   5.3381673  47.8163833  13.9981673   6.2041673  48.7273833  13.4521673
   6.0261673  47.9953833  13.6701673   1.9631673  54.0873833   8.9641673
   1.9741673  54.1463833   9.8341673   1.5381673  53.3403833   8.8141673
   1.9021673  53.9853833   9.0701673   8.8781673  47.1353833   5.1631673
   8.9541673  47.4763833   5.9621673   9.0471673  46.2883833   5.2841673
   8.9141673  47.0603833   5.2991673   6.4001673  46.4093833   4.7281673
   6.1021673  46.0943833   5.4851673   7.0951673  46.8823833   4.9631673
   6.4591673  46.4323833   4.8751673   6.6221673  50.5273833  12.7551673
   7.3091673  50.4133833  13.2801673   6.7561673  51.3183833  12.4111673
   6.7431673  50.6273833  12.7821673  14.7981673  43.1363833  14.5661673
  13.9431673  43.0143833  14.6921673  14.9511673  42.7413833  13.8031673
  14.6941673  43.0593833  14.4721673   9.3111673  43.8013833  13.1421673
   9.0561673  43.0823833  13.5641673  10.1321673  43.9173833  13.4121673
   9.3951673  43.7123833  13.2441673   7.2451673  44.9913833  16.3291673
   7.5681673  45.6773833  15.8971673   6.5411673  45.3143833  16.7311673
   7.1881673  45.1403833  16.3241673  10.3291673  53.3653833   7.2581673
   9.8781673  54.0083833   7.6371673  11.0371673  53.2863833   7.7631673
  10.3671673  53.4483833   7.3891673   7.0301673  48.4553833  10.1881673
   6.3361673  48.8573833  10.5311673   7.7071673  48.8883833  10.5271673
   7.0271673  48.5783833  10.2891673  12.4071673  51.0483833  16.7681673
  13.1831673  50.6583833  16.8511673  11.9381673  50.7123833  17.4231673
  12.4521673  50.9413833  16.8771673   7.3521673  50.0463833   3.3571673
   7.1471673  50.8793833   3.1981673   6.5771673  49.6643833   3.4791673
   7.2071673  50.1133833   3.3521673  12.5341673  43.2273833  11.6061673
  12.5321673  42.3643833  11.7301673  12.6011673  43.5513833  12.4131673
  12.5441673  43.1473833  11.7431673   8.4131673  38.0273833  15.3881673
   8.5051673  38.7393833  15.8821673   7.7761673  37.5823833  15.7851673
   8.3321673  38.0663833  15.5201673   7.4071673  38.2173833   6.2421673
   6.7071673  38.7353833   6.1861673   7.4451673  37.8373833   5.4581673
   7.3091673  38.2383833   6.1181673  11.0051673  38.7333833   9.0421673
  11.8601673  38.8323833   9.1871673  10.6361673  39.2863833   9.6071673
  11.0771673  38.8303833   9.1471673   2.0331673  44.9593833  13.4191673
   1.6371673  45.7333833  13.4941673   1.6271673  44.5863833  12.7431673
   1.9151673  45.0183833  13.3301673  11.3091673  44.0133833   7.5331673
  11.9751673  44.5543833   7.6931673  10.9641673  44.3243833   6.7941673
  11.3561673  44.1393833   7.4481673  11.6221673  52.0793833   3.3401673
  11.4481673  51.4253833   3.8901673  12.3351673  51.8083833   2.9171673
  11.7021673  51.9423833   3.3591673   2.4621673  37.9363833  10.8691673
   1.5981673  38.0203833  10.9491673   2.6821673  37.4223833  11.5381673
   2.3671673  37.8733833  10.9801673  14.4801673  36.5713833  12.1981673
  14.4281673  36.5273833  13.0681673  15.1671673  36.0683833  12.0081673
  14.5741673  36.4913833  12.2981673   6.5651673  38.6843833   9.2431673
   5.8281673  38.2303833   9.3561673   7.1361673  38.2823833   9.7661673
   6.5401673  38.5573833   9.3371673   9.2971673  49.5323833  11.0311673
   9.5031673  49.8333833  11.8231673   9.2361673  50.2543833  10.5461673
   9.3181673  49.6833833  11.0761673   8.8311673  53.7463833  15.2771673
   8.0781673  53.7283833  14.8361673   8.9991673  54.5983833  15.3611673
   8.7451673  53.8693833  15.2241673   4.0681673  43.0133833  14.4471673
   3.7461673  42.4373833  13.8771673   3.7091673  43.7683833  14.2011673
   3.9681673  43.0393833  14.3271673  14.1091673  48.1713833  10.4891673
  14.0771673  47.3093833  10.3541673  13.4161673  48.4733833  10.0551673
  14.0021673  48.0883833  10.4051673   2.5031673  53.3693833  14.6951673
   2.5441673  53.4953833  15.5581673   3.1541673  52.8093833  14.5391673
   2.6051673  53.3053833  14.8001673  12.2141673  51.4313833   9.2861673
  12.7411673  51.3483833   8.5951673  11.8231673  50.6533833   9.3401673
  12.2341673  51.3043833   9.1921673   8.7281673  36.8753833   8.4941673
   9.3981673  37.4193833   8.6211673   8.2251673  37.2993833   7.9211673
   8.7531673  37.0183833   8.4281673   8.0871673  42.6833833   5.9871673
   8.6381673  42.0763833   6.2871673   7.6621673  42.9463833   6.7021673
   8.1061673  42.6323833   6.1361673  10.0571673  44.5143833   2.5491673
  10.1251673  43.6643833   2.7301673   9.2341673  44.6003833   2.2711673
   9.9451673  44.4013833   2.5351673  13.3311673  45.8873833  15.7001673
  13.9651673  45.7173833  16.2741673  13.7481673  46.2903833  15.0481673
  13.4861673  45.9223833  15.6891673  13.9561673  40.4513833  16.4381673
  13.7601673  41.0953833  16.9931673  13.2341673  39.9613833  16.4301673
  13.8211673  40.4743833  16.5191673  13.8551673  41.3923833   9.4091673
  13.0221673  41.6423833   9.3371673  13.7991673  40.5523833   9.6381673
  13.7241673  41.3053833   9.4321673   3.1151673  38.3803833  14.6031673
   3.3491673  37.8043833  13.9901673   2.2731673  38.1993833  14.7441673
   3.0251673  38.2683833  14.5331673  10.7421673  45.9983833  17.0551673
  11.6131673  45.9623833  17.0191673  10.5231673  46.4183833  16.3231673
  10.8391673  46.0543833  16.9421673   7.5061673  18.1052753  79.9891313
   7.2611673  18.5932753  79.3091313   8.3691673  18.0322753  79.8891313
   7.5971673  18.1662753  79.8741313   7.3151673  25.0212753  84.6601313
   6.7911673  25.6172753  85.0231313   7.7121673  24.6532753  85.3441313
   7.2961673  25.0552753  84.8151313  13.4591673  32.4622753  77.6311313
  14.1601673  31.9432753  77.6271313  12.8721673  32.0172753  77.1621313
  13.4761673  32.3192753  77.5611313   9.9861673  26.0882753  81.3361313
  10.0661673  26.0922753  80.4671313   9.4021673  25.4562753  81.4851313
   9.9111673  25.9952753  81.2301313   3.9751673  19.1922753  79.1441313
   3.9051673  19.8692753  78.5981313   4.7161673  18.8042753  78.8951313
   4.0741673  19.2352753  79.0261313   3.0781673  22.0272753  85.9201313
   3.7561673  22.0452753  85.3711313   3.0331673  21.1912753  86.1651313
   3.1711673  21.9062753  85.8751313   3.6801673  32.6132753  88.7011313
   3.8181673  33.3732753  88.2941313   4.4711673  32.2482753  88.7281313
   3.8171673  32.6722753  88.6451313   4.7751673  30.4982753  83.2061313
   5.1231673  29.6992753  83.2361313   5.4401673  31.0022753  82.9511313
   4.9251673  30.4542753  83.1731313   4.8321673  29.9472753  79.4171313
   5.1631673  29.3032753  79.9031313   5.0721673  29.7362753  78.6061313
   4.9161673  29.8212753  79.3691313   4.1471673  18.7532753  82.0851313
   4.2201673  19.6132753  82.2141313   4.1091673  18.6782753  81.2171313
   4.1521673  18.8692753  81.9761313   8.8201673  21.6792753  74.3841313
   8.3701673  22.3602753  74.6911313   8.9341673  21.1752753  75.0871313
   8.7711673  21.7052753  74.5331313   2.7761673  31.7322753  78.9661313
   2.1971673  31.4572753  79.5581313   3.4001673  31.1232753  78.9911313
   2.7831673  31.6022753  79.0571313   8.9191673  34.0202753  76.4881313
   9.6461673  34.4922753  76.5901313   9.1481673  33.2262753  76.7681313
   9.0611673  33.9732753  76.5451313   7.0871673  34.4122753  78.4781313
   7.3011673  34.9392753  79.1401313   7.8541673  34.2382753  78.0991313
   7.2321673  34.4642753  78.5201313  14.2141673  21.6522753  80.6791313
  13.8681673  22.3302753  81.1051313  13.5781673  21.0542753  80.6951313
  14.0691673  21.6642753  80.7441313   9.5261673  34.4222753  86.7831313
  10.2701673  34.8782753  86.7731313   9.4051673  34.2082753  85.9461313
   9.6181673  34.4582753  86.6581313   2.5301673  33.8972753  82.2131313
   3.3741673  34.0012753  82.0181313   2.2331673  34.7152753  82.2811313
   2.6111673  34.0332753  82.1941313   6.3371673  23.2942753  80.3001313
   6.6241673  23.0622753  79.5101313   7.0691673  23.3732753  80.7691313
   6.4871673  23.2712753  80.2531313   7.0591673  23.6332753  75.4211313
   7.3401673  24.4212753  75.6701313   6.2831673  23.7982753  75.0581313
   6.9861673  23.7742753  75.4041313  11.1001673  35.6072753  76.8881313
  11.7651673  35.4592753  76.3431313  11.4601673  35.5242753  77.6781313
  11.2521673  35.5732753  76.9241313  13.8891673  19.9752753  86.0481313
  14.6461673  20.0472753  85.6201313  13.9521673  19.2022753  86.4471313
  14.0101673  19.8722753  86.0431313   5.9181673  31.8042753  75.2371313
   5.7371673  32.3492753  75.8941313   6.6841673  32.0942753  74.9361313
   6.0041673  31.9282753  75.2901313   9.4251673  19.7002753  76.2911313
   9.9651673  19.0182753  76.3671313   9.4871673  20.0982753  77.0651313
   9.5141673  19.6582753  76.4171313   6.6831673  22.0762753  77.6051313
   6.1751673  21.4142753  77.3511313   6.7351673  22.5802753  76.8951313
   6.6161673  22.0532753  77.4631313   7.2321673  34.7712753  87.9851313
   8.0001673  34.6912753  87.5791313   6.6491673  34.6502753  87.3471313
   7.2591673  34.7412753  87.8311313   6.6831673  19.0172753  77.4961313
   6.2281673  18.6152753  76.8701313   7.4561673  19.1722753  77.1211313
   6.7301673  18.9812753  77.3481313  13.5091673  35.3742753  80.8861313
  13.0541673  36.0912753  81.0871313  12.8951673  34.8032753  80.6441313
  13.3511673  35.3962753  80.8801313   5.2811673  21.3842753  82.0181313
   5.3551673  21.9522753  81.3601313   5.4021673  21.8762753  82.7281313
   5.3091673  21.5412753  82.0261313  10.5061673  31.2192753  80.4301313
  11.2071673  30.7372753  80.6191313   9.8461673  30.6502753  80.4751313
  10.5121673  31.0642753  80.4641313   2.8451673  27.6402753  84.3911313
   3.0171673  27.4302753  85.2201313   2.1901673  27.1062753  84.1751313
   2.7741673  27.5302753  84.4821313   9.0731673  21.5542753  87.9061313
   8.9781673  21.8732753  88.7121313   8.4801673  20.9152753  87.8681313
   8.9711673  21.5062753  88.0201313   3.5951673  27.5782753  86.9811313
   3.6481673  28.4252753  87.1831313   3.3101673  27.2082753  87.7181313
   3.5611673  27.6482753  87.1191313   9.7721673  28.2732753  86.1111313
   9.2581673  27.8612753  86.6821313   9.6461673  29.1172753  86.2921313
   9.6781673  28.3372753  86.2221313  10.3291673  17.4982753  80.7421313
  10.3781673  17.1802753  81.5531313  10.6521673  16.8542753  80.2491313
  10.3841673  17.3562753  80.7891313  12.7931673  21.7342753  89.0501313
  13.5651673  21.5092753  89.3871313  12.3181673  21.9512753  89.7501313
  12.8371673  21.7332753  89.2031313  13.0251673  28.7122753  76.2381313
  13.1441673  28.4252753  77.0531313  13.8321673  28.7332753  75.9081313
  13.1611673  28.6732753  76.3101313  10.9201673  25.2492753  75.8231313
  10.7001673  25.9802753  75.4011313  10.4721673  25.3002753  76.5701313
  10.8211673  25.3642753  75.8711313   2.5291673  28.4512753  79.8041313
   3.2421673  28.9462753  79.8941313   2.7511673  27.8842753  79.1781313
   2.6671673  28.4402753  79.7251313  15.1071673  20.1102753  75.2761313
  14.4451673  19.5422753  75.2991313  14.9141673  20.6222753  74.5961313
  14.9811673  20.1022753  75.1791313  15.4301673  24.4882753  87.8321313
  15.6451673  23.6882753  87.5561313  14.5801673  24.5482753  87.6431313
  15.3361673  24.3792753  87.7631313  13.1091673  19.6682753  77.5551313
  13.8551673  19.2612753  77.7541313  13.3721673  20.3832753  77.1301313
  13.2581673  19.7142753  77.5221313   7.0521673  32.1542753  82.1311313
   6.5291673  32.7882753  81.8381313   7.3621673  31.7902753  81.4021313
   7.0201673  32.1942753  81.9801313   9.5631673  21.9562753  82.6281313
   9.9071673  22.1082753  83.4151313   9.1101673  21.2182753  82.7411313
   9.5471673  21.8692753  82.7611313   4.0391673  21.1762753  77.0851313
   4.0371673  21.0592753  76.2201313   3.8581673  22.0242753  77.1771313
   4.0121673  21.2842753  76.9711313  13.0931673  33.6032753  88.5821313
  12.4221673  34.1172753  88.8001313  13.1561673  33.7032753  87.7181313
  13.0031673  33.6942753  88.4871313   1.7771673  31.1282753  81.7171313
   1.9031673  31.9712753  81.9041313   2.4451673  30.7292753  82.1131313
   1.8951673  31.1942753  81.8031313  10.8841673  23.2882753  85.1821313
  10.2221673  23.6162753  85.6451313  11.0711673  23.9222753  84.6131313
  10.8141673  23.4302753  85.1661313   5.0891673  34.3522753  86.1781313
   4.8121673  33.7112753  85.6551313   4.8811673  35.0782753  85.7401313
   5.0181673  34.3652753  86.0361313   7.5291673  19.1942753  88.6111313
   7.6781673  18.3692753  88.3681313   7.9081673  19.2492753  89.3951313
   7.6071673  19.0802753  88.6911313   9.0771673  21.2572753  78.6931313
   9.5671673  21.9742753  78.6161313   8.2871673  21.5182753  78.4301313
   9.0331673  21.4012753  78.6431313   5.6591673  22.7272753  84.4181313
   6.1391673  23.4262753  84.6261313   6.0321673  22.0802753  84.8691313
   5.7851673  22.7352753  84.5151313   7.8481673  25.8962753  76.6921313
   7.8401673  26.6182753  76.2021313   7.2091673  26.0312753  77.2691313
   7.7531673  26.0232753  76.7051313  12.8201673  29.7662753  80.6731313
  13.1761673  29.4162753  81.3881313  12.8121673  29.1052753  80.1031313
  12.8721673  29.6162753  80.6941313   8.8651673  32.8322753  84.5171313
   8.2621673  32.5362753  83.9601313   9.4101673  33.2842753  84.0081313
   8.8561673  32.8552753  84.3591313   8.8781673  29.6832753  83.9171313
   8.0811673  29.9072753  84.1911313   9.1361673  29.0892753  84.5021313
   8.7981673  29.6282753  84.0441313   2.7701673  34.4952753  78.3651313
   2.6231673  33.7192753  78.7361313   3.4591673  34.3482753  77.8501313
   2.8501673  34.3582753  78.3441313   2.4411673  18.2382753  76.3531313
   2.5381673  18.1312753  77.2141313   1.7331673  18.7442753  76.2881313
   2.3511673  18.2972753  76.4711313   5.0621673  34.0112753  76.7671313
   5.6841673  34.1742753  77.3571313   5.0981673  34.7022753  76.2351313
   5.1591673  34.1372753  76.7761313  12.1381673  27.6812753  88.7631313
  12.1931673  27.8062753  87.9011313  12.8911673  28.0012753  89.0651313
  12.2571673  27.7462753  88.6801313   7.8691673  27.4872753  88.3631313
   7.7141673  28.0972753  88.9671313   8.4031673  26.9292753  88.7691313
   7.9251673  27.4952753  88.5121313   6.2531673  25.8872753  79.0211313
   6.3121673  26.5372753  79.6001313   6.0641673  25.1912753  79.5121313
   6.2341673  25.8802753  79.1791313  11.4791673  30.2162753  84.8901313
  11.0001673  30.5142753  84.2241313  11.1231673  29.4402753  85.0681313
  11.3561673  30.1452753  84.8181313   5.4761673  27.9342753  83.4521313
   4.6291673  27.7402753  83.5331313   5.8001673  27.7692753  84.2451313
   5.3981673  27.8812753  83.5811313   2.2281673  34.6642753  74.3381313
   2.6671673  33.9672753  74.6261313   2.4351673  35.2882753  74.9111313
   2.3241673  34.6532753  74.4651313   2.5541673  22.7982753  82.5031313
   3.4001673  22.6082753  82.6011313   2.1841673  22.0212753  82.3651313
   2.6241673  22.6552753  82.4971313  15.1711673  34.3822753  76.8301313
  15.8651673  33.9152753  76.5821313  14.6321673  33.7842753  77.1671313
  15.1941673  34.2242753  76.8431313  12.4101673  27.1582753  86.0091313
  12.4031673  26.3822753  86.4071313  11.5691673  27.3922753  86.0021313
  12.2851673  27.0782753  86.0671313  13.6661673  27.2292753  83.4461313
  13.3801673  27.6302753  84.1661313  14.5261673  27.1672753  83.5731313
  13.7511673  27.2792753  83.5711313   3.3551673  24.0312753  77.3541313
   3.6271673  24.8572753  77.4211313   2.4921673  24.1062753  77.2581313
   3.2681673  24.1642753  77.3491313  14.7971673  32.8622753  83.9751313
  15.0871673  33.1192753  83.1941313  15.4921673  32.9582753  84.4941313
  14.9431673  32.9142753  83.9361313  11.4021673  31.4652753  75.9571313
  11.7361673  30.6592753  75.9921313  10.6471673  31.3932753  76.3871313
  11.3401673  31.3352753  76.0261313  11.8841673  23.2992753  81.6161313
  11.1391673  22.9762753  81.9341313  11.8861673  24.1252753  81.8961313
  11.7741673  23.3732753  81.7041313  14.3241673  29.2592753  89.3681313
  14.9521673  28.7102753  89.1121313  14.2631673  29.8242753  88.7061313
  14.4081673  29.2622753  89.2321313   8.7761673  29.3402753  75.3601313
   9.4601673  28.8262753  75.1911313   8.3591673  29.3862753  74.5951313
   8.8151673  29.2712753  75.2221313   3.4581673  30.4902753  86.6641313
   3.1601673  31.0822753  87.2311313   3.5131673  30.9322753  85.9151313
   3.4221673  30.6432753  86.6371313  10.7961673  19.6292753  89.0771313
  11.5401673  20.0812753  89.0141313  10.2301673  20.0992753  88.6081313
  10.8231673  19.7662753  88.9991313   5.9741673  26.9132753  86.1551313
   6.4501673  27.2872753  86.7831313   5.1511673  27.0472753  86.4141313
   5.9231673  26.9882753  86.2861313   2.6841673  22.5162753  88.8961313
   2.8451673  21.7722753  89.3231313   2.6391673  22.2672753  88.0611313
   2.7011673  22.3692753  88.8361313   5.2381673  34.3062753  81.3831313
   5.7841673  34.9852753  81.4371313   4.8881673  34.3882753  80.5881313
   5.2671673  34.4192753  81.2731313  12.0811673  17.6092753  86.7471313
  11.8011673  18.4342753  86.7031313  12.7971673  17.6622753  87.2431313
  12.1461673  17.7392753  86.8141313   4.4361673  18.3242753  88.7761313
   5.1411673  18.6442753  88.3741313   4.6771673  17.5172753  89.0031313
   4.5751673  18.2522753  88.7501313   3.4211673  32.5342753  84.7721313
   2.7971673  33.1162753  84.5901313   3.6691673  32.2482753  83.9861313
   3.3651673  32.5782753  84.6291313  13.5021673  23.8642753  75.6041313
  13.8801673  24.5412753  75.2041313  12.6601673  24.0882753  75.6351313
  13.4331673  23.9972753  75.5491313   5.0151673  27.3102753  74.6871313
   4.2101673  27.1332753  74.4021313   4.9821673  28.1612753  74.8791313
   4.8911673  27.4092753  74.6741313   8.6491673  24.0162753  86.7271313
   8.9511673  24.4362753  87.4301313   8.6851673  23.1762753  86.9591313
   8.6991673  23.9542753  86.8651313  11.1971673  23.4632753  78.9791313
  11.4041673  23.2622753  79.8031313  11.9531673  23.7312753  78.6371313
  11.3391673  23.4732753  79.0501313   4.4921673  18.3622753  84.8841313
   3.6661673  18.2132753  85.1211313   4.4521673  18.3972753  84.0131313
   4.3641673  18.3452753  84.7901313  12.2191673  19.5462753  80.4531313
  11.5051673  19.0752753  80.6241313  12.0571673  19.8872753  79.6671313
  12.0901673  19.5272753  80.3621313  12.6621673  27.4902753  78.8331313
  13.1381673  26.7612753  78.7851313  11.8411673  27.2042753  78.7571313
  12.6111673  27.3402753  78.8141313   6.1331673  29.4022753  89.6721313
   5.3381673  29.3382753  90.0231313   6.2041673  30.2492753  89.4771313
   6.0261673  29.5172753  89.6951313   1.9631673  35.6092753  84.9891313
   1.9741673  35.6682753  85.8591313   1.5381673  34.8622753  84.8391313
   1.9021673  35.5072753  85.0951313   8.8781673  28.6572753  81.1881313
   8.9541673  28.9982753  81.9871313   9.0471673  27.8102753  81.3091313
   8.9141673  28.5822753  81.3241313   6.4001673  27.9312753  80.7531313
   6.1021673  27.6162753  81.5101313   7.0951673  28.4042753  80.9881313
   6.4591673  27.9542753  80.9001313   6.6221673  32.0492753  88.7801313
   7.3091673  31.9352753  89.3051313   6.7561673  32.8402753  88.4361313
   6.7431673  32.1492753  88.8071313   9.3111673  25.3232753  89.1671313
   9.0561673  24.6042753  89.5891313  10.1321673  25.4392753  89.4371313
   9.3951673  25.2342753  89.2691313  10.3291673  34.8872753  83.2831313
   9.8781673  35.5302753  83.6621313  11.0371673  34.8082753  83.7881313
  10.3671673  34.9702753  83.4141313   7.0301673  29.9772753  86.2131313
   6.3361673  30.3792753  86.5561313   7.7071673  30.4102753  86.5521313
   7.0271673  30.1002753  86.3141313  13.4321673  24.6032753  78.2751313
  13.5351673  24.5452753  77.4111313  14.1731673  24.2712753  78.5931313
  13.5571673  24.5462753  78.1941313   7.3521673  31.5682753  79.3821313
   7.1471673  32.4012753  79.2231313   6.5771673  31.1862753  79.5041313
   7.2071673  31.6352753  79.3771313  12.5341673  24.7492753  87.6311313
  12.5321673  23.8862753  87.7551313  12.6011673  25.0732753  88.4381313
  12.5441673  24.6692753  87.7681313   7.4071673  19.7392753  82.2671313
   6.7071673  20.2572753  82.2111313   7.4451673  19.3592753  81.4831313
   7.3091673  19.7602753  82.1431313   2.7141673  31.8302753  75.7911313
   3.1551673  31.9102753  76.5391313   1.9091673  31.6142753  76.0491313
   2.6601673  31.8102753  75.9401313  11.0051673  20.2552753  85.0671313
  11.8601673  20.3542753  85.2121313  10.6361673  20.8082753  85.6321313
  11.0771673  20.3522753  85.1721313   2.0331673  26.4812753  89.4441313
   1.6371673  27.2552753  89.5191313   1.6271673  26.1082753  88.7681313
   1.9151673  26.5402753  89.3551313  11.3091673  25.5352753  83.5581313
  11.9751673  26.0762753  83.7181313  10.9641673  25.8462753  82.8191313
  11.3561673  25.6612753  83.4731313  11.6221673  33.6012753  79.3651313
  11.4481673  32.9472753  79.9151313  12.3351673  33.3302753  78.9421313
  11.7021673  33.4642753  79.3841313   2.8621673  29.1452753  75.1351313
   2.0441673  28.8772753  75.2751313   2.8341673  29.9972753  75.3201313
   2.7371673  29.2322753  75.1831313   2.4621673  19.4582753  86.8941313
   1.5981673  19.5422753  86.9741313   2.6821673  18.9442753  87.5631313
   2.3671673  19.3952753  87.0051313  14.4801673  18.0932753  88.2231313
  14.4281673  18.0492753  89.0931313  15.1671673  17.5902753  88.0331313
  14.5741673  18.0132753  88.3231313   6.5651673  20.2062753  85.2681313
   5.8281673  19.7522753  85.3811313   7.1361673  19.8042753  85.7911313
   6.5401673  20.0792753  85.3621313   9.2971673  31.0542753  87.0561313
   9.5031673  31.3552753  87.8481313   9.2361673  31.7762753  86.5711313
   9.3181673  31.2052753  87.1011313   4.8641673  17.7872753  75.0991313
   4.9421673  18.0342753  74.2661313   4.1211673  18.1642753  75.3571313
   4.7661673  17.8792753  75.0141313  14.1091673  29.6932753  86.5141313
  14.0771673  28.8312753  86.3791313  13.4161673  29.9952753  86.0801313
  14.0021673  29.6102753  86.4301313  12.2141673  32.9532753  85.3111313
  12.7411673  32.8702753  84.6201313  11.8231673  32.1752753  85.3651313
  12.2341673  32.8262753  85.2171313   8.7281673  18.3972753  84.5191313
   9.3981673  18.9412753  84.6461313   8.2251673  18.8212753  83.9461313
   8.7531673  18.5402753  84.4531313   8.0871673  24.2052753  82.0121313
   8.6381673  23.5982753  82.3121313   7.6621673  24.4682753  82.7271313
   8.1061673  24.1542753  82.1611313  10.0571673  26.0362753  78.5741313
  10.1251673  25.1862753  78.7551313   9.2341673  26.1222753  78.2961313
   9.9451673  25.9232753  78.5601313   3.9761673  26.9272753  77.5121313
   4.0761673  27.0662753  76.6571313   4.7941673  26.8672753  77.8081313
   4.1111673  26.9382753  77.4291313  13.1361673  34.9912753  74.9921313
  13.7731673  34.8572753  75.5731313  12.7951673  34.1972753  74.8751313
  13.1801673  34.8542753  75.0601313   9.2111673  31.2562753  77.3141313
   8.9601673  31.1282753  78.1401313   8.8941673  30.5612753  76.8931313
   9.1271673  31.1352753  77.3741313  13.8551673  22.9142753  85.4341313
  13.0221673  23.1642753  85.3621313  13.7991673  22.0742753  85.6631313
  13.7241673  22.8272753  85.4571313   6.0971673  29.4642753  76.7441313
   6.8141673  29.1172753  76.3881313   6.0631673  30.2642753  76.3961313
   6.1981673  29.5312753  76.6401313   7.5061673  18.1052753  60.9828903
   7.2611673  18.5932753  60.3028903   8.3691673  18.0322753  60.8828903
   7.5971673  18.1662753  60.8678903   7.3151673  25.0212753  65.6538903
   6.7911673  25.6172753  66.0168903   7.7121673  24.6532753  66.3378903
   7.2961673  25.0552753  65.8088903  13.4591673  32.4622753  58.6248903
  14.1601673  31.9432753  58.6208903  12.8721673  32.0172753  58.1558903
  13.4761673  32.3192753  58.5548903   9.9861673  26.0882753  62.3298903
  10.0661673  26.0922753  61.4608903   9.4021673  25.4562753  62.4788903
   9.9111673  25.9952753  62.2238903   3.9751673  19.1922753  60.1378903
   3.9051673  19.8692753  59.5918903   4.7161673  18.8042753  59.8888903
   4.0741673  19.2352753  60.0198903   3.6981673  29.4212753  72.4318903
   3.4621673  29.4182753  73.2718903   2.9501673  29.2732753  72.0078903
   3.5521673  29.3982753  72.4928903   3.0781673  22.0272753  66.9138903
   3.7561673  22.0452753  66.3648903   3.0331673  21.1912753  67.1588903
   3.1711673  21.9062753  66.8688903   3.6801673  32.6132753  69.6948903
   3.8181673  33.3732753  69.2878903   4.4711673  32.2482753  69.7218903
   3.8171673  32.6722753  69.6388903   4.7751673  30.4982753  64.1998903
   5.1231673  29.6992753  64.2298903   5.4401673  31.0022753  63.9448903
   4.9251673  30.4542753  64.1668903   4.8321673  29.9472753  60.4108903
   5.1631673  29.3032753  60.8968903   5.0721673  29.7362753  59.5998903
   4.9161673  29.8212753  60.3628903   6.8001673  24.0782753  71.7498903
   5.9521673  23.9792753  71.5718903   6.8291673  24.8232753  72.2038903
   6.6791673  24.1742753  71.7908903  11.3581673  17.0382753  70.8638903
  11.2001673  17.8072753  70.4818903  10.5861673  16.8182753  71.2078903
  11.2201673  17.1192753  70.8588903   4.1471673  18.7532753  63.0788903
   4.2201673  19.6132753  63.2078903   4.1091673  18.6782753  62.2108903
   4.1521673  18.8692753  62.9698903   8.8201673  21.6792753  55.3778903
   8.3701673  22.3602753  55.6848903   8.9341673  21.1752753  56.0808903
   8.7711673  21.7052753  55.5268903   2.7761673  31.7322753  59.9598903
   2.1971673  31.4572753  60.5518903   3.4001673  31.1232753  59.9848903
   2.7831673  31.6022753  60.0508903   8.9191673  34.0202753  57.4818903
   9.6461673  34.4922753  57.5838903   9.1481673  33.2262753  57.7618903
   9.0611673  33.9732753  57.5388903   7.0871673  34.4122753  59.4718903
   7.3011673  34.9392753  60.1338903   7.8541673  34.2382753  59.0928903
   7.2321673  34.4642753  59.5138903   3.3611673  21.1282753  74.3688903
   3.4781673  20.6742753  73.6328903   3.6491673  21.9262753  74.1658903
   3.4211673  21.1792753  74.2298903  14.2141673  21.6522753  61.6728903
  13.8681673  22.3302753  62.0988903  13.5781673  21.0542753  61.6888903
  14.0691673  21.6642753  61.7378903   9.5261673  34.4222753  67.7768903
  10.2701673  34.8782753  67.7668903   9.4051673  34.2082753  66.9398903
   9.6181673  34.4582753  67.6518903   2.5301673  33.8972753  63.2068903
   3.3741673  34.0012753  63.0118903   2.2331673  34.7152753  63.2748903
   2.6111673  34.0332753  63.1878903   5.7431673  18.3682753  72.5208903
   5.9211673  17.5592753  72.2458903   5.6001673  18.8092753  71.7818903
   5.7481673  18.3142753  72.3708903   6.3371673  23.2942753  61.2938903
   6.6241673  23.0622753  60.5038903   7.0691673  23.3732753  61.7628903
   6.4871673  23.2712753  61.2468903   7.0591673  23.6332753  56.4148903
   7.3401673  24.4212753  56.6638903   6.2831673  23.7982753  56.0518903
   6.9861673  23.7742753  56.3978903  11.1001673  35.6072753  57.8818903
  11.7651673  35.4592753  57.3368903  11.4601673  35.5242753  58.6718903
  11.2521673  35.5732753  57.9178903  13.8891673  19.9752753  67.0418903
  14.6461673  20.0472753  66.6138903  13.9521673  19.2022753  67.4408903
  14.0101673  19.8722753  67.0368903   8.7801673  31.6072753  71.4808903
   8.7461673  31.9892753  72.2648903   9.6341673  31.5652753  71.3098903
   8.9011673  31.6572753  71.5718903   5.9181673  31.8042753  56.2308903
   5.7371673  32.3492753  56.8878903   6.6841673  32.0942753  55.9298903
   6.0041673  31.9282753  56.2838903   9.4251673  19.7002753  57.2848903
   9.9651673  19.0182753  57.3608903   9.4871673  20.0982753  58.0588903
   9.5141673  19.6582753  57.4108903   6.6831673  22.0762753  58.5988903
   6.1751673  21.4142753  58.3448903   6.7351673  22.5802753  57.8888903
   6.6161673  22.0532753  58.4568903   7.2321673  34.7712753  68.9788903
   8.0001673  34.6912753  68.5728903   6.6491673  34.6502753  68.3408903
   7.2591673  34.7412753  68.8248903   6.6831673  19.0172753  58.4898903
   6.2281673  18.6152753  57.8638903   7.4561673  19.1722753  58.1148903
   6.7301673  18.9812753  58.3418903  13.5091673  35.3742753  61.8798903
  13.0541673  36.0912753  62.0808903  12.8951673  34.8032753  61.6378903
  13.3511673  35.3962753  61.8738903   5.2811673  21.3842753  63.0118903
   5.3551673  21.9522753  62.3538903   5.4021673  21.8762753  63.7218903
   5.3091673  21.5412753  63.0198903  10.5061673  31.2192753  61.4238903
  11.2071673  30.7372753  61.6128903   9.8461673  30.6502753  61.4688903
  10.5121673  31.0642753  61.4578903   2.8451673  27.6402753  65.3848903
   3.0171673  27.4302753  66.2138903   2.1901673  27.1062753  65.1688903
   2.7741673  27.5302753  65.4758903   9.0731673  21.5542753  68.8998903
   8.9781673  21.8732753  69.7058903   8.4801673  20.9152753  68.8618903
   8.9711673  21.5062753  69.0138903   3.5951673  27.5782753  67.9748903
   3.6481673  28.4252753  68.1768903   3.3101673  27.2082753  68.7118903
   3.5611673  27.6482753  68.1128903   9.7721673  28.2732753  67.1048903
   9.2581673  27.8612753  67.6758903   9.6461673  29.1172753  67.2858903
   9.6781673  28.3372753  67.2158903  10.3291673  17.4982753  61.7358903
  10.3781673  17.1802753  62.5468903  10.6521673  16.8542753  61.2428903
  10.3841673  17.3562753  61.7828903  12.7931673  21.7342753  70.0438903
  13.5651673  21.5092753  70.3808903  12.3181673  21.9512753  70.7438903
  12.8371673  21.7332753  70.1968903  13.0251673  28.7122753  57.2318903
  13.1441673  28.4252753  58.0468903  13.8321673  28.7332753  56.9018903
  13.1611673  28.6732753  57.3038903  15.2591673  33.2212753  71.4858903
  14.5771673  33.5312753  71.0388903  14.8901673  32.7632753  72.1308903
  15.1031673  33.1992753  71.5148903  10.9201673  25.2492753  56.8168903
  10.7001673  25.9802753  56.3948903  10.4721673  25.3002753  57.5638903
  10.8211673  25.3642753  56.8648903   2.5291673  28.4512753  60.7978903
   3.2421673  28.9462753  60.8878903   2.7511673  27.8842753  60.1718903
   2.6671673  28.4402753  60.7188903  15.1071673  20.1102753  56.2698903
  14.4451673  19.5422753  56.2928903  14.9141673  20.6222753  55.5898903
  14.9811673  20.1022753  56.1728903   4.3321673  23.8042753  74.2138903
   3.8481673  24.3812753  74.6558903   4.3041673  24.0992753  73.3928903
   4.2561673  23.9332753  74.1578903  15.4301673  24.4882753  68.8258903
  15.6451673  23.6882753  68.5498903  14.5801673  24.5482753  68.6368903
  15.3361673  24.3792753  68.7568903  13.1091673  19.6682753  58.5488903
  13.8551673  19.2612753  58.7478903  13.3721673  20.3832753  58.1238903
  13.2581673  19.7142753  58.5158903   7.0521673  32.1542753  63.1248903
   6.5291673  32.7882753  62.8318903   7.3621673  31.7902753  62.3958903
   7.0201673  32.1942753  62.9738903   9.5631673  21.9562753  63.6218903
   9.9071673  22.1082753  64.4088903   9.1101673  21.2182753  63.7348903
   9.5471673  21.8692753  63.7548903   4.0391673  21.1762753  58.0788903
   4.0371673  21.0592753  57.2138903   3.8581673  22.0242753  58.1708903
   4.0121673  21.2842753  57.9648903  13.0931673  33.6032753  69.5758903
  12.4221673  34.1172753  69.7938903  13.1561673  33.7032753  68.7118903
  13.0031673  33.6942753  69.4808903   1.7771673  31.1282753  62.7108903
   1.9031673  31.9712753  62.8978903   2.4451673  30.7292753  63.1068903
   1.8951673  31.1942753  62.7968903  10.8841673  23.2882753  66.1758903
  10.2221673  23.6162753  66.6388903  11.0711673  23.9222753  65.6068903
  10.8141673  23.4302753  66.1598903   5.0891673  34.3522753  67.1718903
   4.8121673  33.7112753  66.6488903   4.8811673  35.0782753  66.7338903
   5.0181673  34.3652753  67.0298903   7.5291673  19.1942753  69.6048903
   7.6781673  18.3692753  69.3618903   7.9081673  19.2492753  70.3888903
   7.6071673  19.0802753  69.6848903   9.0771673  21.2572753  59.6868903
   9.5671673  21.9742753  59.6098903   8.2871673  21.5182753  59.4238903
   9.0331673  21.4012753  59.6368903  10.3911673  29.1352753  71.5968903
  10.8751673  29.8532753  71.6948903  10.7851673  28.7082753  70.9458903
  10.5211673  29.1782753  71.5148903   4.6871673  31.9802753  72.7738903
   5.0411673  31.8022753  73.5508903   4.2511673  31.2512753  72.5748903
   4.6751673  31.8462753  72.8598903   5.6591673  22.7272753  65.4118903
   6.1391673  23.4262753  65.6198903   6.0321673  22.0802753  65.8628903
   5.7851673  22.7352753  65.5088903   7.8481673  25.8962753  57.6858903
   7.8401673  26.6182753  57.1958903   7.2091673  26.0312753  58.2628903
   7.7531673  26.0232753  57.6988903  12.8201673  29.7662753  61.6668903
  13.1761673  29.4162753  62.3818903  12.8121673  29.1052753  61.0968903
  12.8721673  29.6162753  61.6878903   8.8651673  32.8322753  65.5108903
   8.2621673  32.5362753  64.9538903   9.4101673  33.2842753  65.0018903
   8.8561673  32.8552753  65.3528903   8.8781673  29.6832753  64.9108903
   8.0811673  29.9072753  65.1848903   9.1361673  29.0892753  65.4958903
   8.7981673  29.6282753  65.0378903   2.7701673  34.4952753  59.3588903
   2.6231673  33.7192753  59.7298903   3.4591673  34.3482753  58.8438903
   2.8501673  34.3582753  59.3378903   2.4411673  18.2382753  57.3468903
   2.5381673  18.1312753  58.2078903   1.7331673  18.7442753  57.2818903
   2.3511673  18.2972753  57.4648903   5.0621673  34.0112753  57.7608903
   5.6841673  34.1742753  58.3508903   5.0981673  34.7022753  57.2288903
   5.1591673  34.1372753  57.7698903  12.1381673  27.6812753  69.7568903
  12.1931673  27.8062753  68.8948903  12.8911673  28.0012753  70.0588903
  12.2571673  27.7462753  69.6738903   8.3291673  33.0302753  74.0338903
   8.4931673  33.3132753  74.8428903   8.5921673  33.6912753  73.5288903
   8.3921673  33.1702753  74.0788903  13.1701673  17.9792753  72.7438903
  12.5331673  17.5792753  72.3018903  13.1961673  17.5482753  73.5018903
  13.0801673  17.8572753  72.7898903   7.8691673  27.4872753  69.3568903
   7.7141673  28.0972753  69.9608903   8.4031673  26.9292753  69.7628903
   7.9251673  27.4952753  69.5058903   6.2531673  25.8872753  60.0148903
   6.3121673  26.5372753  60.5938903   6.0641673  25.1912753  60.5058903
   6.2341673  25.8802753  60.1728903  11.4791673  30.2162753  65.8838903
  11.0001673  30.5142753  65.2178903  11.1231673  29.4402753  66.0618903
  11.3561673  30.1452753  65.8118903   5.4761673  27.9342753  64.4458903
   4.6291673  27.7402753  64.5268903   5.8001673  27.7692753  65.2388903
   5.3981673  27.8812753  64.5748903   2.2281673  34.6642753  55.3318903
   2.6671673  33.9672753  55.6198903   2.4351673  35.2882753  55.9048903
   2.3241673  34.6532753  55.4588903   2.5541673  22.7982753  63.4968903
   3.4001673  22.6082753  63.5948903   2.1841673  22.0212753  63.3588903
   2.6241673  22.6552753  63.4908903  15.1711673  34.3822753  57.8238903
  15.8651673  33.9152753  57.5758903  14.6321673  33.7842753  58.1608903
  15.1941673  34.2242753  57.8368903  12.4101673  27.1582753  67.0028903
  12.4031673  26.3822753  67.4008903  11.5691673  27.3922753  66.9958903
  12.2851673  27.0782753  67.0608903  13.6661673  27.2292753  64.4398903
  13.3801673  27.6302753  65.1598903  14.5261673  27.1672753  64.5668903
  13.7511673  27.2792753  64.5648903   3.3551673  24.0312753  58.3478903
   3.6271673  24.8572753  58.4148903   2.4921673  24.1062753  58.2518903
   3.2681673  24.1642753  58.3428903  11.3281673  21.1532753  72.9798903
  10.8031673  21.6122753  73.5038903  10.9671673  20.3582753  72.9738903
  11.1971673  21.1032753  73.0558903  14.7971673  32.8622753  64.9688903
  15.0871673  33.1192753  64.1878903  15.4921673  32.9582753  65.4878903
  14.9431673  32.9142753  64.9298903   9.8201673  24.7222753  73.0558903
   9.8931673  24.8262753  73.9188903   9.1861673  25.2802753  72.8348903
   9.7371673  24.8202753  73.1508903  12.0881673  25.0412753  71.4208903
  12.4071673  25.8272753  71.6238903  11.7181673  24.7712753  72.1638903
  12.0811673  25.1172753  71.5608903  11.4021673  31.4652753  56.9508903
  11.7361673  30.6592753  56.9858903  10.6471673  31.3932753  57.3808903
  11.3401673  31.3352753  57.0198903  11.8841673  23.2992753  62.6098903
  11.1391673  22.9762753  62.9278903  11.8861673  24.1252753  62.8898903
  11.7741673  23.3732753  62.6978903  14.7861673  25.5832753  74.1558903
  14.7341673  25.2422753  73.3548903  15.5231673  26.0502753  74.1338903
  14.8871673  25.6022753  74.0338903  14.3241673  29.2592753  70.3618903
  14.9521673  28.7102753  70.1058903  14.2631673  29.8242753  69.6998903
  14.4081673  29.2622753  70.2258903   8.7761673  29.3402753  56.3538903
   9.4601673  28.8262753  56.1848903   8.3591673  29.3862753  55.5888903
   8.8151673  29.2712753  56.2158903   3.4581673  30.4902753  67.6578903
   3.1601673  31.0822753  68.2248903   3.5131673  30.9322753  66.9088903
   3.4221673  30.6432753  67.6308903  10.7961673  19.6292753  70.0708903
  11.5401673  20.0812753  70.0078903  10.2301673  20.0992753  69.6018903
  10.8231673  19.7662753  69.9928903   5.9741673  26.9132753  67.1488903
   6.4501673  27.2872753  67.7768903   5.1511673  27.0472753  67.4078903
   5.9231673  26.9882753  67.2798903   2.6841673  22.5162753  69.8898903
   2.8451673  21.7722753  70.3168903   2.6391673  22.2672753  69.0548903
   2.7011673  22.3692753  69.8298903   5.2381673  34.3062753  62.3768903
   5.7841673  34.9852753  62.4308903   4.8881673  34.3882753  61.5818903
   5.2671673  34.4192753  62.2668903  12.0811673  17.6092753  67.7408903
  11.8011673  18.4342753  67.6968903  12.7971673  17.6622753  68.2368903
  12.1461673  17.7392753  67.8078903   4.4361673  18.3242753  69.7698903
   5.1411673  18.6442753  69.3678903   4.6771673  17.5172753  69.9968903
   4.5751673  18.2522753  69.7438903   3.4211673  32.5342753  65.7658903
   2.7971673  33.1162753  65.5838903   3.6691673  32.2482753  64.9798903
   3.3651673  32.5782753  65.6228903   7.7301673  29.1682753  72.7548903
   8.4871673  29.4542753  72.4288903   7.1831673  29.2202753  72.0768903
   7.7611673  29.2182753  72.6058903  11.6391673  31.7182753  71.2588903
  11.9851673  31.9882753  72.0128903  11.9331673  32.3002753  70.6788903
  11.7341673  31.8442753  71.2848903  13.5021673  23.8642753  56.5978903
  13.8801673  24.5412753  56.1978903  12.6601673  24.0882753  56.6288903
  13.4331673  23.9972753  56.5428903   5.0151673  27.3102753  55.6808903
   4.2101673  27.1332753  55.3958903   4.9821673  28.1612753  55.8728903
   4.8911673  27.4092753  55.6678903   8.9611673  22.4792753  71.4228903
   8.3131673  22.9492753  71.7708903   9.5261673  22.3902753  72.0818903
   8.9491673  22.5352753  71.5718903   8.6491673  24.0162753  67.7208903
   8.9511673  24.4362753  68.4238903   8.6851673  23.1762753  67.9528903
   8.6991673  23.9542753  67.8588903   6.0741673  34.1832753  71.6458903
   6.5521673  33.5832753  71.2298903   5.7231673  33.7402753  72.3108903
   6.0931673  34.0292753  71.6828903  11.1971673  23.4632753  59.9728903
  11.4041673  23.2622753  60.7968903  11.9531673  23.7312753  59.6308903
  11.3391673  23.4732753  60.0438903   4.4921673  18.3622753  65.8778903
   3.6661673  18.2132753  66.1148903   4.4521673  18.3972753  65.0068903
   4.3641673  18.3452753  65.7838903  12.2191673  19.5462753  61.4468903
  11.5051673  19.0752753  61.6178903  12.0571673  19.8872753  60.6608903
  12.0901673  19.5272753  61.3558903  12.6621673  27.4902753  59.8268903
  13.1381673  26.7612753  59.7788903  11.8411673  27.2042753  59.7508903
  12.6111673  27.3402753  59.8078903   6.1331673  29.4022753  70.6658903
   5.3381673  29.3382753  71.0168903   6.2041673  30.2492753  70.4708903
   6.0261673  29.5172753  70.6888903   1.9631673  35.6092753  65.9828903
   1.9741673  35.6682753  66.8528903   1.5381673  34.8622753  65.8328903
   1.9021673  35.5072753  66.0888903   8.8781673  28.6572753  62.1818903
   8.9541673  28.9982753  62.9808903   9.0471673  27.8102753  62.3028903
   8.9141673  28.5822753  62.3178903   6.4001673  27.9312753  61.7468903
   6.1021673  27.6162753  62.5038903   7.0951673  28.4042753  61.9818903
   6.4591673  27.9542753  61.8938903   6.6221673  32.0492753  69.7738903
   7.3091673  31.9352753  70.2988903   6.7561673  32.8402753  69.4298903
   6.7431673  32.1492753  69.8008903  14.7981673  24.6582753  71.5848903
  13.9431673  24.5362753  71.7108903  14.9511673  24.2632753  70.8218903
  14.6941673  24.5812753  71.4908903   9.3111673  25.3232753  70.1608903
   9.0561673  24.6042753  70.5828903  10.1321673  25.4392753  70.4308903
   9.3951673  25.2342753  70.2628903   7.2451673  26.5132753  73.3478903
   7.5681673  27.1992753  72.9158903   6.5411673  26.8362753  73.7498903
   7.1881673  26.6622753  73.3428903  10.3291673  34.8872753  64.2768903
   9.8781673  35.5302753  64.6558903  11.0371673  34.8082753  64.7818903
  10.3671673  34.9702753  64.4078903   7.0301673  29.9772753  67.2068903
   6.3361673  30.3792753  67.5498903   7.7071673  30.4102753  67.5458903
   7.0271673  30.1002753  67.3078903  12.4071673  32.5702753  73.7868903
  13.1831673  32.1802753  73.8698903  11.9381673  32.2342753  74.4418903
  12.4521673  32.4632753  73.8958903  13.4321673  24.6032753  59.2688903
  13.5351673  24.5452753  58.4048903  14.1731673  24.2712753  59.5868903
  13.5571673  24.5462753  59.1878903   7.3521673  31.5682753  60.3758903
   7.1471673  32.4012753  60.2168903   6.5771673  31.1862753  60.4978903
   7.2071673  31.6352753  60.3708903  12.5341673  24.7492753  68.6248903
  12.5321673  23.8862753  68.7488903  12.6011673  25.0732753  69.4318903
  12.5441673  24.6692753  68.7618903   8.4131673  19.5492753  72.4068903
   8.5051673  20.2612753  72.9008903   7.7761673  19.1042753  72.8038903
   8.3321673  19.5882753  72.5388903   7.4071673  19.7392753  63.2608903
   6.7071673  20.2572753  63.2048903   7.4451673  19.3592753  62.4768903
   7.3091673  19.7602753  63.1368903   2.7141673  31.8302753  56.7848903
   3.1551673  31.9102753  57.5328903   1.9091673  31.6142753  57.0428903
   2.6601673  31.8102753  56.9338903  11.0051673  20.2552753  66.0608903
  11.8601673  20.3542753  66.2058903  10.6361673  20.8082753  66.6258903
  11.0771673  20.3522753  66.1658903   2.0331673  26.4812753  70.4378903
   1.6371673  27.2552753  70.5128903   1.6271673  26.1082753  69.7618903
   1.9151673  26.5402753  70.3488903  11.3091673  25.5352753  64.5518903
  11.9751673  26.0762753  64.7118903  10.9641673  25.8462753  63.8128903
  11.3561673  25.6612753  64.4668903  11.6221673  33.6012753  60.3588903
  11.4481673  32.9472753  60.9088903  12.3351673  33.3302753  59.9358903
  11.7021673  33.4642753  60.3778903   2.8621673  29.1452753  56.1288903
   2.0441673  28.8772753  56.2688903   2.8341673  29.9972753  56.3138903
   2.7371673  29.2322753  56.1768903   2.4621673  19.4582753  67.8878903
   1.5981673  19.5422753  67.9678903   2.6821673  18.9442753  68.5568903
   2.3671673  19.3952753  67.9988903  14.4801673  18.0932753  69.2168903
  14.4281673  18.0492753  70.0868903  15.1671673  17.5902753  69.0268903
  14.5741673  18.0132753  69.3168903   6.5651673  20.2062753  66.2618903
   5.8281673  19.7522753  66.3748903   7.1361673  19.8042753  66.7848903
   6.5401673  20.0792753  66.3558903   9.2971673  31.0542753  68.0498903
   9.5031673  31.3552753  68.8418903   9.2361673  31.7762753  67.5648903
   9.3181673  31.2052753  68.0948903   8.8311673  35.2682753  72.2958903
   8.0781673  35.2502753  71.8548903   8.9991673  36.1202753  72.3798903
   8.7451673  35.3912753  72.2428903   4.0681673  24.5352753  71.4658903
   3.7461673  23.9592753  70.8958903   3.7091673  25.2902753  71.2198903
   3.9681673  24.5612753  71.3458903   4.8641673  17.7872753  56.0928903
   4.9421673  18.0342753  55.2598903   4.1211673  18.1642753  56.3508903
   4.7661673  17.8792753  56.0078903  14.1091673  29.6932753  67.5078903
  14.0771673  28.8312753  67.3728903  13.4161673  29.9952753  67.0738903
  14.0021673  29.6102753  67.4238903   2.5031673  34.8912753  71.7138903
   2.5441673  35.0172753  72.5768903   3.1541673  34.3312753  71.5578903
   2.6051673  34.8272753  71.8188903  12.2141673  32.9532753  66.3048903
  12.7411673  32.8702753  65.6138903  11.8231673  32.1752753  66.3588903
  12.2341673  32.8262753  66.2108903   8.7281673  18.3972753  65.5128903
   9.3981673  18.9412753  65.6398903   8.2251673  18.8212753  64.9398903
   8.7531673  18.5402753  65.4468903   8.0871673  24.2052753  63.0058903
   8.6381673  23.5982753  63.3058903   7.6621673  24.4682753  63.7208903
   8.1061673  24.1542753  63.1548903  10.0571673  26.0362753  59.5678903
  10.1251673  25.1862753  59.7488903   9.2341673  26.1222753  59.2898903
   9.9451673  25.9232753  59.5538903   3.9761673  26.9272753  58.5058903
   4.0761673  27.0662753  57.6508903   4.7941673  26.8672753  58.8018903
   4.1111673  26.9382753  58.4228903  13.1361673  34.9912753  55.9858903
  13.7731673  34.8572753  56.5668903  12.7951673  34.1972753  55.8688903
  13.1801673  34.8542753  56.0538903  13.3311673  27.4092753  72.7188903
  13.9651673  27.2392753  73.2928903  13.7481673  27.8122753  72.0668903
  13.4861673  27.4442753  72.7078903   9.2111673  31.2562753  58.3078903
   8.9601673  31.1282753  59.1338903   8.8941673  30.5612753  57.8868903
   9.1271673  31.1352753  58.3678903  13.9561673  21.9732753  73.4568903
  13.7601673  22.6172753  74.0118903  13.2341673  21.4832753  73.4488903
  13.8211673  21.9962753  73.5378903  13.8551673  22.9142753  66.4278903
  13.0221673  23.1642753  66.3558903  13.7991673  22.0742753  66.6568903
  13.7241673  22.8272753  66.4508903   3.1151673  19.9022753  71.6218903
   3.3491673  19.3262753  71.0088903   2.2731673  19.7212753  71.7628903
   3.0251673  19.7902753  71.5518903  10.7421673  27.5202753  74.0738903
  11.6131673  27.4842753  74.0378903  10.5231673  27.9402753  73.3418903
  10.8391673  27.5762753  73.9608903   6.0971673  29.4642753  57.7378903
   6.8141673  29.1172753  57.3818903   6.0631673  30.2642753  57.3898903
   6.1981673  29.5312753  57.6338903   7.5061673  18.1052753  41.9766493
   7.2611673  18.5932753  41.2966493   8.3691673  18.0322753  41.8766493
   7.5971673  18.1662753  41.8616493   7.3151673  25.0212753  46.6476493
   6.7911673  25.6172753  47.0106493   7.7121673  24.6532753  47.3316493
   7.2961673  25.0552753  46.8026493  13.4591673  32.4622753  39.6186493
  14.1601673  31.9432753  39.6146493  12.8721673  32.0172753  39.1496493
  13.4761673  32.3192753  39.5486493   9.9861673  26.0882753  43.3236493
  10.0661673  26.0922753  42.4546493   9.4021673  25.4562753  43.4726493
   9.9111673  25.9952753  43.2176493   3.9751673  19.1922753  41.1316493
   3.9051673  19.8692753  40.5856493   4.7161673  18.8042753  40.8826493
   4.0741673  19.2352753  41.0136493   3.6981673  29.4212753  53.4256493
   3.4621673  29.4182753  54.2656493   2.9501673  29.2732753  53.0016493
   3.5521673  29.3982753  53.4866493   3.0781673  22.0272753  47.9076493
   3.7561673  22.0452753  47.3586493   3.0331673  21.1912753  48.1526493
   3.1711673  21.9062753  47.8626493   3.6801673  32.6132753  50.6886493
   3.8181673  33.3732753  50.2816493   4.4711673  32.2482753  50.7156493
   3.8171673  32.6722753  50.6326493   4.7751673  30.4982753  45.1936493
   5.1231673  29.6992753  45.2236493   5.4401673  31.0022753  44.9386493
   4.9251673  30.4542753  45.1606493   4.8321673  29.9472753  41.4046493
   5.1631673  29.3032753  41.8906493   5.0721673  29.7362753  40.5936493
   4.9161673  29.8212753  41.3566493   6.8001673  24.0782753  52.7436493
   5.9521673  23.9792753  52.5656493   6.8291673  24.8232753  53.1976493
   6.6791673  24.1742753  52.7846493  11.3581673  17.0382753  51.8576493
  11.2001673  17.8072753  51.4756493  10.5861673  16.8182753  52.2016493
  11.2201673  17.1192753  51.8526493   4.1471673  18.7532753  44.0726493
   4.2201673  19.6132753  44.2016493   4.1091673  18.6782753  43.2046493
   4.1521673  18.8692753  43.9636493   8.8201673  21.6792753  36.3716493
   8.3701673  22.3602753  36.6786493   8.9341673  21.1752753  37.0746493
   8.7711673  21.7052753  36.5206493   2.7761673  31.7322753  40.9536493
   2.1971673  31.4572753  41.5456493   3.4001673  31.1232753  40.9786493
   2.7831673  31.6022753  41.0446493   8.9191673  34.0202753  38.4756493
   9.6461673  34.4922753  38.5776493   9.1481673  33.2262753  38.7556493
   9.0611673  33.9732753  38.5326493   7.0871673  34.4122753  40.4656493
   7.3011673  34.9392753  41.1276493   7.8541673  34.2382753  40.0866493
   7.2321673  34.4642753  40.5076493   3.3611673  21.1282753  55.3626493
   3.4781673  20.6742753  54.6266493   3.6491673  21.9262753  55.1596493
   3.4211673  21.1792753  55.2236493  14.2141673  21.6522753  42.6666493
  13.8681673  22.3302753  43.0926493  13.5781673  21.0542753  42.6826493
  14.0691673  21.6642753  42.7316493   9.5261673  34.4222753  48.7706493
  10.2701673  34.8782753  48.7606493   9.4051673  34.2082753  47.9336493
   9.6181673  34.4582753  48.6456493   2.5301673  33.8972753  44.2006493
   3.3741673  34.0012753  44.0056493   2.2331673  34.7152753  44.2686493
   2.6111673  34.0332753  44.1816493   5.7431673  18.3682753  53.5146493
   5.9211673  17.5592753  53.2396493   5.6001673  18.8092753  52.7756493
   5.7481673  18.3142753  53.3646493   6.3371673  23.2942753  42.2876493
   6.6241673  23.0622753  41.4976493   7.0691673  23.3732753  42.7566493
   6.4871673  23.2712753  42.2406493   7.0591673  23.6332753  37.4086493
   7.3401673  24.4212753  37.6576493   6.2831673  23.7982753  37.0456493
   6.9861673  23.7742753  37.3916493  11.1001673  35.6072753  38.8756493
  11.7651673  35.4592753  38.3306493  11.4601673  35.5242753  39.6656493
  11.2521673  35.5732753  38.9116493  13.8891673  19.9752753  48.0356493
  14.6461673  20.0472753  47.6076493  13.9521673  19.2022753  48.4346493
  14.0101673  19.8722753  48.0306493   8.7801673  31.6072753  52.4746493
   8.7461673  31.9892753  53.2586493   9.6341673  31.5652753  52.3036493
   8.9011673  31.6572753  52.5656493   5.9181673  31.8042753  37.2246493
   5.7371673  32.3492753  37.8816493   6.6841673  32.0942753  36.9236493
   6.0041673  31.9282753  37.2776493   9.4251673  19.7002753  38.2786493
   9.9651673  19.0182753  38.3546493   9.4871673  20.0982753  39.0526493
   9.5141673  19.6582753  38.4046493   6.6831673  22.0762753  39.5926493
   6.1751673  21.4142753  39.3386493   6.7351673  22.5802753  38.8826493
   6.6161673  22.0532753  39.4506493   7.2321673  34.7712753  49.9726493
   8.0001673  34.6912753  49.5666493   6.6491673  34.6502753  49.3346493
   7.2591673  34.7412753  49.8186493   6.6831673  19.0172753  39.4836493
   6.2281673  18.6152753  38.8576493   7.4561673  19.1722753  39.1086493
   6.7301673  18.9812753  39.3356493  13.5091673  35.3742753  42.8736493
  13.0541673  36.0912753  43.0746493  12.8951673  34.8032753  42.6316493
  13.3511673  35.3962753  42.8676493   5.2811673  21.3842753  44.0056493
   5.3551673  21.9522753  43.3476493   5.4021673  21.8762753  44.7156493
   5.3091673  21.5412753  44.0136493  10.5061673  31.2192753  42.4176493
  11.2071673  30.7372753  42.6066493   9.8461673  30.6502753  42.4626493
  10.5121673  31.0642753  42.4516493   2.8451673  27.6402753  46.3786493
   3.0171673  27.4302753  47.2076493   2.1901673  27.1062753  46.1626493
   2.7741673  27.5302753  46.4696493   9.0731673  21.5542753  49.8936493
   8.9781673  21.8732753  50.6996493   8.4801673  20.9152753  49.8556493
   8.9711673  21.5062753  50.0076493   3.5951673  27.5782753  48.9686493
   3.6481673  28.4252753  49.1706493   3.3101673  27.2082753  49.7056493
   3.5611673  27.6482753  49.1066493   9.7721673  28.2732753  48.0986493
   9.2581673  27.8612753  48.6696493   9.6461673  29.1172753  48.2796493
   9.6781673  28.3372753  48.2096493  10.3291673  17.4982753  42.7296493
  10.3781673  17.1802753  43.5406493  10.6521673  16.8542753  42.2366493
  10.3841673  17.3562753  42.7766493  12.7931673  21.7342753  51.0376493
  13.5651673  21.5092753  51.3746493  12.3181673  21.9512753  51.7376493
  12.8371673  21.7332753  51.1906493  13.0251673  28.7122753  38.2256493
  13.1441673  28.4252753  39.0406493  13.8321673  28.7332753  37.8956493
  13.1611673  28.6732753  38.2976493  15.2591673  33.2212753  52.4796493
  14.5771673  33.5312753  52.0326493  14.8901673  32.7632753  53.1246493
  15.1031673  33.1992753  52.5086493  10.9201673  25.2492753  37.8106493
  10.7001673  25.9802753  37.3886493  10.4721673  25.3002753  38.5576493
  10.8211673  25.3642753  37.8586493   2.5291673  28.4512753  41.7916493
   3.2421673  28.9462753  41.8816493   2.7511673  27.8842753  41.1656493
   2.6671673  28.4402753  41.7126493  15.1071673  20.1102753  37.2636493
  14.4451673  19.5422753  37.2866493  14.9141673  20.6222753  36.5836493
  14.9811673  20.1022753  37.1666493   4.3321673  23.8042753  55.2076493
   3.8481673  24.3812753  55.6496493   4.3041673  24.0992753  54.3866493
   4.2561673  23.9332753  55.1516493  15.4301673  24.4882753  49.8196493
  15.6451673  23.6882753  49.5436493  14.5801673  24.5482753  49.6306493
  15.3361673  24.3792753  49.7506493  13.1091673  19.6682753  39.5426493
  13.8551673  19.2612753  39.7416493  13.3721673  20.3832753  39.1176493
  13.2581673  19.7142753  39.5096493   7.0521673  32.1542753  44.1186493
   6.5291673  32.7882753  43.8256493   7.3621673  31.7902753  43.3896493
   7.0201673  32.1942753  43.9676493   9.5631673  21.9562753  44.6156493
   9.9071673  22.1082753  45.4026493   9.1101673  21.2182753  44.7286493
   9.5471673  21.8692753  44.7486493   4.0391673  21.1762753  39.0726493
   4.0371673  21.0592753  38.2076493   3.8581673  22.0242753  39.1646493
   4.0121673  21.2842753  38.9586493  13.0931673  33.6032753  50.5696493
  12.4221673  34.1172753  50.7876493  13.1561673  33.7032753  49.7056493
  13.0031673  33.6942753  50.4746493   1.7771673  31.1282753  43.7046493
   1.9031673  31.9712753  43.8916493   2.4451673  30.7292753  44.1006493
   1.8951673  31.1942753  43.7906493  10.8841673  23.2882753  47.1696493
  10.2221673  23.6162753  47.6326493  11.0711673  23.9222753  46.6006493
  10.8141673  23.4302753  47.1536493   5.0891673  34.3522753  48.1656493
   4.8121673  33.7112753  47.6426493   4.8811673  35.0782753  47.7276493
   5.0181673  34.3652753  48.0236493   7.5291673  19.1942753  50.5986493
   7.6781673  18.3692753  50.3556493   7.9081673  19.2492753  51.3826493
   7.6071673  19.0802753  50.6786493   9.0771673  21.2572753  40.6806493
   9.5671673  21.9742753  40.6036493   8.2871673  21.5182753  40.4176493
   9.0331673  21.4012753  40.6306493  10.3911673  29.1352753  52.5906493
  10.8751673  29.8532753  52.6886493  10.7851673  28.7082753  51.9396493
  10.5211673  29.1782753  52.5086493   4.6871673  31.9802753  53.7676493
   5.0411673  31.8022753  54.5446493   4.2511673  31.2512753  53.5686493
   4.6751673  31.8462753  53.8536493   5.6591673  22.7272753  46.4056493
   6.1391673  23.4262753  46.6136493   6.0321673  22.0802753  46.8566493
   5.7851673  22.7352753  46.5026493   7.8481673  25.8962753  38.6796493
   7.8401673  26.6182753  38.1896493   7.2091673  26.0312753  39.2566493
   7.7531673  26.0232753  38.6926493  12.8201673  29.7662753  42.6606493
  13.1761673  29.4162753  43.3756493  12.8121673  29.1052753  42.0906493
  12.8721673  29.6162753  42.6816493   8.8651673  32.8322753  46.5046493
   8.2621673  32.5362753  45.9476493   9.4101673  33.2842753  45.9956493
   8.8561673  32.8552753  46.3466493   8.8781673  29.6832753  45.9046493
   8.0811673  29.9072753  46.1786493   9.1361673  29.0892753  46.4896493
   8.7981673  29.6282753  46.0316493   2.7701673  34.4952753  40.3526493
   2.6231673  33.7192753  40.7236493   3.4591673  34.3482753  39.8376493
   2.8501673  34.3582753  40.3316493   2.4411673  18.2382753  38.3406493
   2.5381673  18.1312753  39.2016493   1.7331673  18.7442753  38.2756493
   2.3511673  18.2972753  38.4586493   5.0621673  34.0112753  38.7546493
   5.6841673  34.1742753  39.3446493   5.0981673  34.7022753  38.2226493
   5.1591673  34.1372753  38.7636493  12.1381673  27.6812753  50.7506493
  12.1931673  27.8062753  49.8886493  12.8911673  28.0012753  51.0526493
  12.2571673  27.7462753  50.6676493   8.3291673  33.0302753  55.0276493
   8.4931673  33.3132753  55.8366493   8.5921673  33.6912753  54.5226493
   8.3921673  33.1702753  55.0726493  13.1701673  17.9792753  53.7376493
  12.5331673  17.5792753  53.2956493  13.1961673  17.5482753  54.4956493
  13.0801673  17.8572753  53.7836493   7.8691673  27.4872753  50.3506493
   7.7141673  28.0972753  50.9546493   8.4031673  26.9292753  50.7566493
   7.9251673  27.4952753  50.4996493   6.2531673  25.8872753  41.0086493
   6.3121673  26.5372753  41.5876493   6.0641673  25.1912753  41.4996493
   6.2341673  25.8802753  41.1666493  11.4791673  30.2162753  46.8776493
  11.0001673  30.5142753  46.2116493  11.1231673  29.4402753  47.0556493
  11.3561673  30.1452753  46.8056493   5.4761673  27.9342753  45.4396493
   4.6291673  27.7402753  45.5206493   5.8001673  27.7692753  46.2326493
   5.3981673  27.8812753  45.5686493   2.2281673  34.6642753  36.3256493
   2.6671673  33.9672753  36.6136493   2.4351673  35.2882753  36.8986493
   2.3241673  34.6532753  36.4526493   2.5541673  22.7982753  44.4906493
   3.4001673  22.6082753  44.5886493   2.1841673  22.0212753  44.3526493
   2.6241673  22.6552753  44.4846493  15.1711673  34.3822753  38.8176493
  15.8651673  33.9152753  38.5696493  14.6321673  33.7842753  39.1546493
  15.1941673  34.2242753  38.8306493  12.4101673  27.1582753  47.9966493
  12.4031673  26.3822753  48.3946493  11.5691673  27.3922753  47.9896493
  12.2851673  27.0782753  48.0546493  13.6661673  27.2292753  45.4336493
  13.3801673  27.6302753  46.1536493  14.5261673  27.1672753  45.5606493
  13.7511673  27.2792753  45.5586493   3.3551673  24.0312753  39.3416493
   3.6271673  24.8572753  39.4086493   2.4921673  24.1062753  39.2456493
   3.2681673  24.1642753  39.3366493  11.3281673  21.1532753  53.9736493
  10.8031673  21.6122753  54.4976493  10.9671673  20.3582753  53.9676493
  11.1971673  21.1032753  54.0496493  14.7971673  32.8622753  45.9626493
  15.0871673  33.1192753  45.1816493  15.4921673  32.9582753  46.4816493
  14.9431673  32.9142753  45.9236493   9.8201673  24.7222753  54.0496493
   9.8931673  24.8262753  54.9126493   9.1861673  25.2802753  53.8286493
   9.7371673  24.8202753  54.1446493  12.0881673  25.0412753  52.4146493
  12.4071673  25.8272753  52.6176493  11.7181673  24.7712753  53.1576493
  12.0811673  25.1172753  52.5546493  11.4021673  31.4652753  37.9446493
  11.7361673  30.6592753  37.9796493  10.6471673  31.3932753  38.3746493
  11.3401673  31.3352753  38.0136493  11.8841673  23.2992753  43.6036493
  11.1391673  22.9762753  43.9216493  11.8861673  24.1252753  43.8836493
  11.7741673  23.3732753  43.6916493  14.7861673  25.5832753  55.1496493
  14.7341673  25.2422753  54.3486493  15.5231673  26.0502753  55.1276493
  14.8871673  25.6022753  55.0276493  14.3241673  29.2592753  51.3556493
  14.9521673  28.7102753  51.0996493  14.2631673  29.8242753  50.6936493
  14.4081673  29.2622753  51.2196493   8.7761673  29.3402753  37.3476493
   9.4601673  28.8262753  37.1786493   8.3591673  29.3862753  36.5826493
   8.8151673  29.2712753  37.2096493   3.4581673  30.4902753  48.6516493
   3.1601673  31.0822753  49.2186493   3.5131673  30.9322753  47.9026493
   3.4221673  30.6432753  48.6246493  10.7961673  19.6292753  51.0646493
  11.5401673  20.0812753  51.0016493  10.2301673  20.0992753  50.5956493
  10.8231673  19.7662753  50.9866493   5.9741673  26.9132753  48.1426493
   6.4501673  27.2872753  48.7706493   5.1511673  27.0472753  48.4016493
   5.9231673  26.9882753  48.2736493   2.6841673  22.5162753  50.8836493
   2.8451673  21.7722753  51.3106493   2.6391673  22.2672753  50.0486493
   2.7011673  22.3692753  50.8236493   5.2381673  34.3062753  43.3706493
   5.7841673  34.9852753  43.4246493   4.8881673  34.3882753  42.5756493
   5.2671673  34.4192753  43.2606493  12.0811673  17.6092753  48.7346493
  11.8011673  18.4342753  48.6906493  12.7971673  17.6622753  49.2306493
  12.1461673  17.7392753  48.8016493   4.4361673  18.3242753  50.7636493
   5.1411673  18.6442753  50.3616493   4.6771673  17.5172753  50.9906493
   4.5751673  18.2522753  50.7376493   3.4211673  32.5342753  46.7596493
   2.7971673  33.1162753  46.5776493   3.6691673  32.2482753  45.9736493
   3.3651673  32.5782753  46.6166493   7.7301673  29.1682753  53.7486493
   8.4871673  29.4542753  53.4226493   7.1831673  29.2202753  53.0706493
   7.7611673  29.2182753  53.5996493  11.6391673  31.7182753  52.2526493
  11.9851673  31.9882753  53.0066493  11.9331673  32.3002753  51.6726493
  11.7341673  31.8442753  52.2786493  13.5021673  23.8642753  37.5916493
  13.8801673  24.5412753  37.1916493  12.6601673  24.0882753  37.6226493
  13.4331673  23.9972753  37.5366493   5.0151673  27.3102753  36.6746493
   4.2101673  27.1332753  36.3896493   4.9821673  28.1612753  36.8666493
   4.8911673  27.4092753  36.6616493   8.9611673  22.4792753  52.4166493
   8.3131673  22.9492753  52.7646493   9.5261673  22.3902753  53.0756493
   8.9491673  22.5352753  52.5656493   8.6491673  24.0162753  48.7146493
   8.9511673  24.4362753  49.4176493   8.6851673  23.1762753  48.9466493
   8.6991673  23.9542753  48.8526493   6.0741673  34.1832753  52.6396493
   6.5521673  33.5832753  52.2236493   5.7231673  33.7402753  53.3046493
   6.0931673  34.0292753  52.6766493  11.1971673  23.4632753  40.9666493
  11.4041673  23.2622753  41.7906493  11.9531673  23.7312753  40.6246493
  11.3391673  23.4732753  41.0376493   4.4921673  18.3622753  46.8716493
   3.6661673  18.2132753  47.1086493   4.4521673  18.3972753  46.0006493
   4.3641673  18.3452753  46.7776493  12.2191673  19.5462753  42.4406493
  11.5051673  19.0752753  42.6116493  12.0571673  19.8872753  41.6546493
  12.0901673  19.5272753  42.3496493  12.6621673  27.4902753  40.8206493
  13.1381673  26.7612753  40.7726493  11.8411673  27.2042753  40.7446493
  12.6111673  27.3402753  40.8016493   6.1331673  29.4022753  51.6596493
   5.3381673  29.3382753  52.0106493   6.2041673  30.2492753  51.4646493
   6.0261673  29.5172753  51.6826493   1.9631673  35.6092753  46.9766493
   1.9741673  35.6682753  47.8466493   1.5381673  34.8622753  46.8266493
   1.9021673  35.5072753  47.0826493   8.8781673  28.6572753  43.1756493
   8.9541673  28.9982753  43.9746493   9.0471673  27.8102753  43.2966493
   8.9141673  28.5822753  43.3116493   6.4001673  27.9312753  42.7406493
   6.1021673  27.6162753  43.4976493   7.0951673  28.4042753  42.9756493
   6.4591673  27.9542753  42.8876493   6.6221673  32.0492753  50.7676493
   7.3091673  31.9352753  51.2926493   6.7561673  32.8402753  50.4236493
   6.7431673  32.1492753  50.7946493  14.7981673  24.6582753  52.5786493
  13.9431673  24.5362753  52.7046493  14.9511673  24.2632753  51.8156493
  14.6941673  24.5812753  52.4846493   9.3111673  25.3232753  51.1546493
   9.0561673  24.6042753  51.5766493  10.1321673  25.4392753  51.4246493
   9.3951673  25.2342753  51.2566493   7.2451673  26.5132753  54.3416493
   7.5681673  27.1992753  53.9096493   6.5411673  26.8362753  54.7436493
   7.1881673  26.6622753  54.3366493  10.3291673  34.8872753  45.2706493
   9.8781673  35.5302753  45.6496493  11.0371673  34.8082753  45.7756493
  10.3671673  34.9702753  45.4016493   7.0301673  29.9772753  48.2006493
   6.3361673  30.3792753  48.5436493   7.7071673  30.4102753  48.5396493
   7.0271673  30.1002753  48.3016493  12.4071673  32.5702753  54.7806493
  13.1831673  32.1802753  54.8636493  11.9381673  32.2342753  55.4356493
  12.4521673  32.4632753  54.8896493  13.4321673  24.6032753  40.2626493
  13.5351673  24.5452753  39.3986493  14.1731673  24.2712753  40.5806493
  13.5571673  24.5462753  40.1816493   7.3521673  31.5682753  41.3696493
   7.1471673  32.4012753  41.2106493   6.5771673  31.1862753  41.4916493
   7.2071673  31.6352753  41.3646493  12.5341673  24.7492753  49.6186493
  12.5321673  23.8862753  49.7426493  12.6011673  25.0732753  50.4256493
  12.5441673  24.6692753  49.7556493   8.4131673  19.5492753  53.4006493
   8.5051673  20.2612753  53.8946493   7.7761673  19.1042753  53.7976493
   8.3321673  19.5882753  53.5326493   7.4071673  19.7392753  44.2546493
   6.7071673  20.2572753  44.1986493   7.4451673  19.3592753  43.4706493
   7.3091673  19.7602753  44.1306493   2.7141673  31.8302753  37.7786493
   3.1551673  31.9102753  38.5266493   1.9091673  31.6142753  38.0366493
   2.6601673  31.8102753  37.9276493  11.0051673  20.2552753  47.0546493
  11.8601673  20.3542753  47.1996493  10.6361673  20.8082753  47.6196493
  11.0771673  20.3522753  47.1596493   2.0331673  26.4812753  51.4316493
   1.6371673  27.2552753  51.5066493   1.6271673  26.1082753  50.7556493
   1.9151673  26.5402753  51.3426493  11.3091673  25.5352753  45.5456493
  11.9751673  26.0762753  45.7056493  10.9641673  25.8462753  44.8066493
  11.3561673  25.6612753  45.4606493  11.6221673  33.6012753  41.3526493
  11.4481673  32.9472753  41.9026493  12.3351673  33.3302753  40.9296493
  11.7021673  33.4642753  41.3716493   2.8621673  29.1452753  37.1226493
   2.0441673  28.8772753  37.2626493   2.8341673  29.9972753  37.3076493
   2.7371673  29.2322753  37.1706493   2.4621673  19.4582753  48.8816493
   1.5981673  19.5422753  48.9616493   2.6821673  18.9442753  49.5506493
   2.3671673  19.3952753  48.9926493  14.4801673  18.0932753  50.2106493
  14.4281673  18.0492753  51.0806493  15.1671673  17.5902753  50.0206493
  14.5741673  18.0132753  50.3106493   6.5651673  20.2062753  47.2556493
   5.8281673  19.7522753  47.3686493   7.1361673  19.8042753  47.7786493
   6.5401673  20.0792753  47.3496493   9.2971673  31.0542753  49.0436493
   9.5031673  31.3552753  49.8356493   9.2361673  31.7762753  48.5586493
   9.3181673  31.2052753  49.0886493   8.8311673  35.2682753  53.2896493
   8.0781673  35.2502753  52.8486493   8.9991673  36.1202753  53.3736493
   8.7451673  35.3912753  53.2366493   4.0681673  24.5352753  52.4596493
   3.7461673  23.9592753  51.8896493   3.7091673  25.2902753  52.2136493
   3.9681673  24.5612753  52.3396493   4.8641673  17.7872753  37.0866493
   4.9421673  18.0342753  36.2536493   4.1211673  18.1642753  37.3446493
   4.7661673  17.8792753  37.0016493  14.1091673  29.6932753  48.5016493
  14.0771673  28.8312753  48.3666493  13.4161673  29.9952753  48.0676493
  14.0021673  29.6102753  48.4176493   2.5031673  34.8912753  52.7076493
   2.5441673  35.0172753  53.5706493   3.1541673  34.3312753  52.5516493
   2.6051673  34.8272753  52.8126493  12.2141673  32.9532753  47.2986493
  12.7411673  32.8702753  46.6076493  11.8231673  32.1752753  47.3526493
  12.2341673  32.8262753  47.2046493   8.7281673  18.3972753  46.5066493
   9.3981673  18.9412753  46.6336493   8.2251673  18.8212753  45.9336493
   8.7531673  18.5402753  46.4406493   8.0871673  24.2052753  43.9996493
   8.6381673  23.5982753  44.2996493   7.6621673  24.4682753  44.7146493
   8.1061673  24.1542753  44.1486493  10.0571673  26.0362753  40.5616493
  10.1251673  25.1862753  40.7426493   9.2341673  26.1222753  40.2836493
   9.9451673  25.9232753  40.5476493   3.9761673  26.9272753  39.4996493
   4.0761673  27.0662753  38.6446493   4.7941673  26.8672753  39.7956493
   4.1111673  26.9382753  39.4166493  13.1361673  34.9912753  36.9796493
  13.7731673  34.8572753  37.5606493  12.7951673  34.1972753  36.8626493
  13.1801673  34.8542753  37.0476493  13.3311673  27.4092753  53.7126493
  13.9651673  27.2392753  54.2866493  13.7481673  27.8122753  53.0606493
  13.4861673  27.4442753  53.7016493   9.2111673  31.2562753  39.3016493
   8.9601673  31.1282753  40.1276493   8.8941673  30.5612753  38.8806493
   9.1271673  31.1352753  39.3616493  13.9561673  21.9732753  54.4506493
  13.7601673  22.6172753  55.0056493  13.2341673  21.4832753  54.4426493
  13.8211673  21.9962753  54.5316493  13.8551673  22.9142753  47.4216493
  13.0221673  23.1642753  47.3496493  13.7991673  22.0742753  47.6506493
  13.7241673  22.8272753  47.4446493   3.1151673  19.9022753  52.6156493
   3.3491673  19.3262753  52.0026493   2.2731673  19.7212753  52.7566493
   3.0251673  19.7902753  52.5456493  10.7421673  27.5202753  55.0676493
  11.6131673  27.4842753  55.0316493  10.5231673  27.9402753  54.3356493
  10.8391673  27.5762753  54.9546493   6.0971673  29.4642753  38.7316493
   6.8141673  29.1172753  38.3756493   6.0631673  30.2642753  38.3836493
   6.1981673  29.5312753  38.6276493   7.5061673  18.1052753  22.9704083
   7.2611673  18.5932753  22.2904083   8.3691673  18.0322753  22.8704083
   7.5971673  18.1662753  22.8554083   7.3151673  25.0212753  27.6414083
   6.7911673  25.6172753  28.0044083   7.7121673  24.6532753  28.3254083
   7.2961673  25.0552753  27.7964083  13.4591673  32.4622753  20.6124083
  14.1601673  31.9432753  20.6084083  12.8721673  32.0172753  20.1434083
  13.4761673  32.3192753  20.5424083   9.9861673  26.0882753  24.3174083
  10.0661673  26.0922753  23.4484083   9.4021673  25.4562753  24.4664083
   9.9111673  25.9952753  24.2114083   3.9751673  19.1922753  22.1254083
   3.9051673  19.8692753  21.5794083   4.7161673  18.8042753  21.8764083
   4.0741673  19.2352753  22.0074083   3.6981673  29.4212753  34.4194083
   3.4621673  29.4182753  35.2594083   2.9501673  29.2732753  33.9954083
   3.5521673  29.3982753  34.4804083   3.0781673  22.0272753  28.9014083
   3.7561673  22.0452753  28.3524083   3.0331673  21.1912753  29.1464083
   3.1711673  21.9062753  28.8564083   3.6801673  32.6132753  31.6824083
   3.8181673  33.3732753  31.2754083   4.4711673  32.2482753  31.7094083
   3.8171673  32.6722753  31.6264083   4.7751673  30.4982753  26.1874083
   5.1231673  29.6992753  26.2174083   5.4401673  31.0022753  25.9324083
   4.9251673  30.4542753  26.1544083   4.8321673  29.9472753  22.3984083
   5.1631673  29.3032753  22.8844083   5.0721673  29.7362753  21.5874083
   4.9161673  29.8212753  22.3504083   6.8001673  24.0782753  33.7374083
   5.9521673  23.9792753  33.5594083   6.8291673  24.8232753  34.1914083
   6.6791673  24.1742753  33.7784083  11.3581673  17.0382753  32.8514083
  11.2001673  17.8072753  32.4694083  10.5861673  16.8182753  33.1954083
  11.2201673  17.1192753  32.8464083   4.1471673  18.7532753  25.0664083
   4.2201673  19.6132753  25.1954083   4.1091673  18.6782753  24.1984083
   4.1521673  18.8692753  24.9574083   8.8201673  21.6792753  17.3654083
   8.3701673  22.3602753  17.6724083   8.9341673  21.1752753  18.0684083
   8.7711673  21.7052753  17.5144083   2.7761673  31.7322753  21.9474083
   2.1971673  31.4572753  22.5394083   3.4001673  31.1232753  21.9724083
   2.7831673  31.6022753  22.0384083   8.9191673  34.0202753  19.4694083
   9.6461673  34.4922753  19.5714083   9.1481673  33.2262753  19.7494083
   9.0611673  33.9732753  19.5264083   7.0871673  34.4122753  21.4594083
   7.3011673  34.9392753  22.1214083   7.8541673  34.2382753  21.0804083
   7.2321673  34.4642753  21.5014083   3.3611673  21.1282753  36.3564083
   3.4781673  20.6742753  35.6204083   3.6491673  21.9262753  36.1534083
   3.4211673  21.1792753  36.2174083  14.2141673  21.6522753  23.6604083
  13.8681673  22.3302753  24.0864083  13.5781673  21.0542753  23.6764083
  14.0691673  21.6642753  23.7254083   9.5261673  34.4222753  29.7644083
  10.2701673  34.8782753  29.7544083   9.4051673  34.2082753  28.9274083
   9.6181673  34.4582753  29.6394083   2.5301673  33.8972753  25.1944083
   3.3741673  34.0012753  24.9994083   2.2331673  34.7152753  25.2624083
   2.6111673  34.0332753  25.1754083   5.7431673  18.3682753  34.5084083
   5.9211673  17.5592753  34.2334083   5.6001673  18.8092753  33.7694083
   5.7481673  18.3142753  34.3584083   6.3371673  23.2942753  23.2814083
   6.6241673  23.0622753  22.4914083   7.0691673  23.3732753  23.7504083
   6.4871673  23.2712753  23.2344083   7.0591673  23.6332753  18.4024083
   7.3401673  24.4212753  18.6514083   6.2831673  23.7982753  18.0394083
   6.9861673  23.7742753  18.3854083  11.1001673  35.6072753  19.8694083
  11.7651673  35.4592753  19.3244083  11.4601673  35.5242753  20.6594083
  11.2521673  35.5732753  19.9054083  13.8891673  19.9752753  29.0294083
  14.6461673  20.0472753  28.6014083  13.9521673  19.2022753  29.4284083
  14.0101673  19.8722753  29.0244083   8.7801673  31.6072753  33.4684083
   8.7461673  31.9892753  34.2524083   9.6341673  31.5652753  33.2974083
   8.9011673  31.6572753  33.5594083   5.9181673  31.8042753  18.2184083
   5.7371673  32.3492753  18.8754083   6.6841673  32.0942753  17.9174083
   6.0041673  31.9282753  18.2714083   9.4251673  19.7002753  19.2724083
   9.9651673  19.0182753  19.3484083   9.4871673  20.0982753  20.0464083
   9.5141673  19.6582753  19.3984083   6.6831673  22.0762753  20.5864083
   6.1751673  21.4142753  20.3324083   6.7351673  22.5802753  19.8764083
   6.6161673  22.0532753  20.4444083   7.2321673  34.7712753  30.9664083
   8.0001673  34.6912753  30.5604083   6.6491673  34.6502753  30.3284083
   7.2591673  34.7412753  30.8124083   6.6831673  19.0172753  20.4774083
   6.2281673  18.6152753  19.8514083   7.4561673  19.1722753  20.1024083
   6.7301673  18.9812753  20.3294083  13.5091673  35.3742753  23.8674083
  13.0541673  36.0912753  24.0684083  12.8951673  34.8032753  23.6254083
  13.3511673  35.3962753  23.8614083   5.2811673  21.3842753  24.9994083
   5.3551673  21.9522753  24.3414083   5.4021673  21.8762753  25.7094083
   5.3091673  21.5412753  25.0074083  10.5061673  31.2192753  23.4114083
  11.2071673  30.7372753  23.6004083   9.8461673  30.6502753  23.4564083
  10.5121673  31.0642753  23.4454083   2.8451673  27.6402753  27.3724083
   3.0171673  27.4302753  28.2014083   2.1901673  27.1062753  27.1564083
   2.7741673  27.5302753  27.4634083   9.0731673  21.5542753  30.8874083
   8.9781673  21.8732753  31.6934083   8.4801673  20.9152753  30.8494083
   8.9711673  21.5062753  31.0014083   3.5951673  27.5782753  29.9624083
   3.6481673  28.4252753  30.1644083   3.3101673  27.2082753  30.6994083
   3.5611673  27.6482753  30.1004083   9.7721673  28.2732753  29.0924083
   9.2581673  27.8612753  29.6634083   9.6461673  29.1172753  29.2734083
   9.6781673  28.3372753  29.2034083  10.3291673  17.4982753  23.7234083
  10.3781673  17.1802753  24.5344083  10.6521673  16.8542753  23.2304083
  10.3841673  17.3562753  23.7704083  12.7931673  21.7342753  32.0314083
  13.5651673  21.5092753  32.3684083  12.3181673  21.9512753  32.7314083
  12.8371673  21.7332753  32.1844083  13.0251673  28.7122753  19.2194083
  13.1441673  28.4252753  20.0344083  13.8321673  28.7332753  18.8894083
  13.1611673  28.6732753  19.2914083  15.2591673  33.2212753  33.4734083
  14.5771673  33.5312753  33.0264083  14.8901673  32.7632753  34.1184083
  15.1031673  33.1992753  33.5024083  10.9201673  25.2492753  18.8044083
  10.7001673  25.9802753  18.3824083  10.4721673  25.3002753  19.5514083
  10.8211673  25.3642753  18.8524083   2.5291673  28.4512753  22.7854083
   3.2421673  28.9462753  22.8754083   2.7511673  27.8842753  22.1594083
   2.6671673  28.4402753  22.7064083  15.1071673  20.1102753  18.2574083
  14.4451673  19.5422753  18.2804083  14.9141673  20.6222753  17.5774083
  14.9811673  20.1022753  18.1604083   4.3321673  23.8042753  36.2014083
   3.8481673  24.3812753  36.6434083   4.3041673  24.0992753  35.3804083
   4.2561673  23.9332753  36.1454083  15.4301673  24.4882753  30.8134083
  15.6451673  23.6882753  30.5374083  14.5801673  24.5482753  30.6244083
  15.3361673  24.3792753  30.7444083  13.1091673  19.6682753  20.5364083
  13.8551673  19.2612753  20.7354083  13.3721673  20.3832753  20.1114083
  13.2581673  19.7142753  20.5034083   7.0521673  32.1542753  25.1124083
   6.5291673  32.7882753  24.8194083   7.3621673  31.7902753  24.3834083
   7.0201673  32.1942753  24.9614083   9.5631673  21.9562753  25.6094083
   9.9071673  22.1082753  26.3964083   9.1101673  21.2182753  25.7224083
   9.5471673  21.8692753  25.7424083   4.0391673  21.1762753  20.0664083
   4.0371673  21.0592753  19.2014083   3.8581673  22.0242753  20.1584083
   4.0121673  21.2842753  19.9524083  13.0931673  33.6032753  31.5634083
  12.4221673  34.1172753  31.7814083  13.1561673  33.7032753  30.6994083
  13.0031673  33.6942753  31.4684083   1.7771673  31.1282753  24.6984083
   1.9031673  31.9712753  24.8854083   2.4451673  30.7292753  25.0944083
   1.8951673  31.1942753  24.7844083  10.8841673  23.2882753  28.1634083
  10.2221673  23.6162753  28.6264083  11.0711673  23.9222753  27.5944083
  10.8141673  23.4302753  28.1474083   5.0891673  34.3522753  29.1594083
   4.8121673  33.7112753  28.6364083   4.8811673  35.0782753  28.7214083
   5.0181673  34.3652753  29.0174083   7.5291673  19.1942753  31.5924083
   7.6781673  18.3692753  31.3494083   7.9081673  19.2492753  32.3764083
   7.6071673  19.0802753  31.6724083   9.0771673  21.2572753  21.6744083
   9.5671673  21.9742753  21.5974083   8.2871673  21.5182753  21.4114083
   9.0331673  21.4012753  21.6244083  10.3911673  29.1352753  33.5844083
  10.8751673  29.8532753  33.6824083  10.7851673  28.7082753  32.9334083
  10.5211673  29.1782753  33.5024083   4.6871673  31.9802753  34.7614083
   5.0411673  31.8022753  35.5384083   4.2511673  31.2512753  34.5624083
   4.6751673  31.8462753  34.8474083   5.6591673  22.7272753  27.3994083
   6.1391673  23.4262753  27.6074083   6.0321673  22.0802753  27.8504083
   5.7851673  22.7352753  27.4964083   7.8481673  25.8962753  19.6734083
   7.8401673  26.6182753  19.1834083   7.2091673  26.0312753  20.2504083
   7.7531673  26.0232753  19.6864083  12.8201673  29.7662753  23.6544083
  13.1761673  29.4162753  24.3694083  12.8121673  29.1052753  23.0844083
  12.8721673  29.6162753  23.6754083   8.8651673  32.8322753  27.4984083
   8.2621673  32.5362753  26.9414083   9.4101673  33.2842753  26.9894083
   8.8561673  32.8552753  27.3404083   8.8781673  29.6832753  26.8984083
   8.0811673  29.9072753  27.1724083   9.1361673  29.0892753  27.4834083
   8.7981673  29.6282753  27.0254083   2.7701673  34.4952753  21.3464083
   2.6231673  33.7192753  21.7174083   3.4591673  34.3482753  20.8314083
   2.8501673  34.3582753  21.3254083   2.4411673  18.2382753  19.3344083
   2.5381673  18.1312753  20.1954083   1.7331673  18.7442753  19.2694083
   2.3511673  18.2972753  19.4524083   5.0621673  34.0112753  19.7484083
   5.6841673  34.1742753  20.3384083   5.0981673  34.7022753  19.2164083
   5.1591673  34.1372753  19.7574083  12.1381673  27.6812753  31.7444083
  12.1931673  27.8062753  30.8824083  12.8911673  28.0012753  32.0464083
  12.2571673  27.7462753  31.6614083   8.3291673  33.0302753  36.0214083
   8.4931673  33.3132753  36.8304083   8.5921673  33.6912753  35.5164083
   8.3921673  33.1702753  36.0664083  13.1701673  17.9792753  34.7314083
  12.5331673  17.5792753  34.2894083  13.1961673  17.5482753  35.4894083
  13.0801673  17.8572753  34.7774083   7.8691673  27.4872753  31.3444083
   7.7141673  28.0972753  31.9484083   8.4031673  26.9292753  31.7504083
   7.9251673  27.4952753  31.4934083   6.2531673  25.8872753  22.0024083
   6.3121673  26.5372753  22.5814083   6.0641673  25.1912753  22.4934083
   6.2341673  25.8802753  22.1604083  11.4791673  30.2162753  27.8714083
  11.0001673  30.5142753  27.2054083  11.1231673  29.4402753  28.0494083
  11.3561673  30.1452753  27.7994083   5.4761673  27.9342753  26.4334083
   4.6291673  27.7402753  26.5144083   5.8001673  27.7692753  27.2264083
   5.3981673  27.8812753  26.5624083   2.2281673  34.6642753  17.3194083
   2.6671673  33.9672753  17.6074083   2.4351673  35.2882753  17.8924083
   2.3241673  34.6532753  17.4464083   2.5541673  22.7982753  25.4844083
   3.4001673  22.6082753  25.5824083   2.1841673  22.0212753  25.3464083
   2.6241673  22.6552753  25.4784083  15.1711673  34.3822753  19.8114083
  15.8651673  33.9152753  19.5634083  14.6321673  33.7842753  20.1484083
  15.1941673  34.2242753  19.8244083  12.4101673  27.1582753  28.9904083
  12.4031673  26.3822753  29.3884083  11.5691673  27.3922753  28.9834083
  12.2851673  27.0782753  29.0484083  13.6661673  27.2292753  26.4274083
  13.3801673  27.6302753  27.1474083  14.5261673  27.1672753  26.5544083
  13.7511673  27.2792753  26.5524083   3.3551673  24.0312753  20.3354083
   3.6271673  24.8572753  20.4024083   2.4921673  24.1062753  20.2394083
   3.2681673  24.1642753  20.3304083  11.3281673  21.1532753  34.9674083
  10.8031673  21.6122753  35.4914083  10.9671673  20.3582753  34.9614083
  11.1971673  21.1032753  35.0434083  14.7971673  32.8622753  26.9564083
  15.0871673  33.1192753  26.1754083  15.4921673  32.9582753  27.4754083
  14.9431673  32.9142753  26.9174083   9.8201673  24.7222753  35.0434083
   9.8931673  24.8262753  35.9064083   9.1861673  25.2802753  34.8224083
   9.7371673  24.8202753  35.1384083  12.0881673  25.0412753  33.4084083
  12.4071673  25.8272753  33.6114083  11.7181673  24.7712753  34.1514083
  12.0811673  25.1172753  33.5484083  11.4021673  31.4652753  18.9384083
  11.7361673  30.6592753  18.9734083  10.6471673  31.3932753  19.3684083
  11.3401673  31.3352753  19.0074083  11.8841673  23.2992753  24.5974083
  11.1391673  22.9762753  24.9154083  11.8861673  24.1252753  24.8774083
  11.7741673  23.3732753  24.6854083  14.7861673  25.5832753  36.1434083
  14.7341673  25.2422753  35.3424083  15.5231673  26.0502753  36.1214083
  14.8871673  25.6022753  36.0214083  14.3241673  29.2592753  32.3494083
  14.9521673  28.7102753  32.0934083  14.2631673  29.8242753  31.6874083
  14.4081673  29.2622753  32.2134083   8.7761673  29.3402753  18.3414083
   9.4601673  28.8262753  18.1724083   8.3591673  29.3862753  17.5764083
   8.8151673  29.2712753  18.2034083   3.4581673  30.4902753  29.6454083
   3.1601673  31.0822753  30.2124083   3.5131673  30.9322753  28.8964083
   3.4221673  30.6432753  29.6184083  10.7961673  19.6292753  32.0584083
  11.5401673  20.0812753  31.9954083  10.2301673  20.0992753  31.5894083
  10.8231673  19.7662753  31.9804083   5.9741673  26.9132753  29.1364083
   6.4501673  27.2872753  29.7644083   5.1511673  27.0472753  29.3954083
   5.9231673  26.9882753  29.2674083   2.6841673  22.5162753  31.8774083
   2.8451673  21.7722753  32.3044083   2.6391673  22.2672753  31.0424083
   2.7011673  22.3692753  31.8174083   5.2381673  34.3062753  24.3644083
   5.7841673  34.9852753  24.4184083   4.8881673  34.3882753  23.5694083
   5.2671673  34.4192753  24.2544083  12.0811673  17.6092753  29.7284083
  11.8011673  18.4342753  29.6844083  12.7971673  17.6622753  30.2244083
  12.1461673  17.7392753  29.7954083   4.4361673  18.3242753  31.7574083
   5.1411673  18.6442753  31.3554083   4.6771673  17.5172753  31.9844083
   4.5751673  18.2522753  31.7314083   3.4211673  32.5342753  27.7534083
   2.7971673  33.1162753  27.5714083   3.6691673  32.2482753  26.9674083
   3.3651673  32.5782753  27.6104083   7.7301673  29.1682753  34.7424083
   8.4871673  29.4542753  34.4164083   7.1831673  29.2202753  34.0644083
   7.7611673  29.2182753  34.5934083  11.6391673  31.7182753  33.2464083
  11.9851673  31.9882753  34.0004083  11.9331673  32.3002753  32.6664083
  11.7341673  31.8442753  33.2724083  13.5021673  23.8642753  18.5854083
  13.8801673  24.5412753  18.1854083  12.6601673  24.0882753  18.6164083
  13.4331673  23.9972753  18.5304083   5.0151673  27.3102753  17.6684083
   4.2101673  27.1332753  17.3834083   4.9821673  28.1612753  17.8604083
   4.8911673  27.4092753  17.6554083   8.9611673  22.4792753  33.4104083
   8.3131673  22.9492753  33.7584083   9.5261673  22.3902753  34.0694083
   8.9491673  22.5352753  33.5594083   8.6491673  24.0162753  29.7084083
   8.9511673  24.4362753  30.4114083   8.6851673  23.1762753  29.9404083
   8.6991673  23.9542753  29.8464083   6.0741673  34.1832753  33.6334083
   6.5521673  33.5832753  33.2174083   5.7231673  33.7402753  34.2984083
   6.0931673  34.0292753  33.6704083  11.1971673  23.4632753  21.9604083
  11.4041673  23.2622753  22.7844083  11.9531673  23.7312753  21.6184083
  11.3391673  23.4732753  22.0314083   4.4921673  18.3622753  27.8654083
   3.6661673  18.2132753  28.1024083   4.4521673  18.3972753  26.9944083
   4.3641673  18.3452753  27.7714083  12.2191673  19.5462753  23.4344083
  11.5051673  19.0752753  23.6054083  12.0571673  19.8872753  22.6484083
  12.0901673  19.5272753  23.3434083  12.6621673  27.4902753  21.8144083
  13.1381673  26.7612753  21.7664083  11.8411673  27.2042753  21.7384083
  12.6111673  27.3402753  21.7954083   6.1331673  29.4022753  32.6534083
   5.3381673  29.3382753  33.0044083   6.2041673  30.2492753  32.4584083
   6.0261673  29.5172753  32.6764083   1.9631673  35.6092753  27.9704083
   1.9741673  35.6682753  28.8404083   1.5381673  34.8622753  27.8204083
   1.9021673  35.5072753  28.0764083   8.8781673  28.6572753  24.1694083
   8.9541673  28.9982753  24.9684083   9.0471673  27.8102753  24.2904083
   8.9141673  28.5822753  24.3054083   6.4001673  27.9312753  23.7344083
   6.1021673  27.6162753  24.4914083   7.0951673  28.4042753  23.9694083
   6.4591673  27.9542753  23.8814083   6.6221673  32.0492753  31.7614083
   7.3091673  31.9352753  32.2864083   6.7561673  32.8402753  31.4174083
   6.7431673  32.1492753  31.7884083  14.7981673  24.6582753  33.5724083
  13.9431673  24.5362753  33.6984083  14.9511673  24.2632753  32.8094083
  14.6941673  24.5812753  33.4784083   9.3111673  25.3232753  32.1484083
   9.0561673  24.6042753  32.5704083  10.1321673  25.4392753  32.4184083
   9.3951673  25.2342753  32.2504083   7.2451673  26.5132753  35.3354083
   7.5681673  27.1992753  34.9034083   6.5411673  26.8362753  35.7374083
   7.1881673  26.6622753  35.3304083  10.3291673  34.8872753  26.2644083
   9.8781673  35.5302753  26.6434083  11.0371673  34.8082753  26.7694083
  10.3671673  34.9702753  26.3954083   7.0301673  29.9772753  29.1944083
   6.3361673  30.3792753  29.5374083   7.7071673  30.4102753  29.5334083
   7.0271673  30.1002753  29.2954083  12.4071673  32.5702753  35.7744083
  13.1831673  32.1802753  35.8574083  11.9381673  32.2342753  36.4294083
  12.4521673  32.4632753  35.8834083  13.4321673  24.6032753  21.2564083
  13.5351673  24.5452753  20.3924083  14.1731673  24.2712753  21.5744083
  13.5571673  24.5462753  21.1754083   7.3521673  31.5682753  22.3634083
   7.1471673  32.4012753  22.2044083   6.5771673  31.1862753  22.4854083
   7.2071673  31.6352753  22.3584083  12.5341673  24.7492753  30.6124083
  12.5321673  23.8862753  30.7364083  12.6011673  25.0732753  31.4194083
  12.5441673  24.6692753  30.7494083   8.4131673  19.5492753  34.3944083
   8.5051673  20.2612753  34.8884083   7.7761673  19.1042753  34.7914083
   8.3321673  19.5882753  34.5264083   7.4071673  19.7392753  25.2484083
   6.7071673  20.2572753  25.1924083   7.4451673  19.3592753  24.4644083
   7.3091673  19.7602753  25.1244083   2.7141673  31.8302753  18.7724083
   3.1551673  31.9102753  19.5204083   1.9091673  31.6142753  19.0304083
   2.6601673  31.8102753  18.9214083  11.0051673  20.2552753  28.0484083
  11.8601673  20.3542753  28.1934083  10.6361673  20.8082753  28.6134083
  11.0771673  20.3522753  28.1534083   2.0331673  26.4812753  32.4254083
   1.6371673  27.2552753  32.5004083   1.6271673  26.1082753  31.7494083
   1.9151673  26.5402753  32.3364083  11.3091673  25.5352753  26.5394083
  11.9751673  26.0762753  26.6994083  10.9641673  25.8462753  25.8004083
  11.3561673  25.6612753  26.4544083  11.6221673  33.6012753  22.3464083
  11.4481673  32.9472753  22.8964083  12.3351673  33.3302753  21.9234083
  11.7021673  33.4642753  22.3654083   2.8621673  29.1452753  18.1164083
   2.0441673  28.8772753  18.2564083   2.8341673  29.9972753  18.3014083
   2.7371673  29.2322753  18.1644083   2.4621673  19.4582753  29.8754083
   1.5981673  19.5422753  29.9554083   2.6821673  18.9442753  30.5444083
   2.3671673  19.3952753  29.9864083  14.4801673  18.0932753  31.2044083
  14.4281673  18.0492753  32.0744083  15.1671673  17.5902753  31.0144083
  14.5741673  18.0132753  31.3044083   6.5651673  20.2062753  28.2494083
   5.8281673  19.7522753  28.3624083   7.1361673  19.8042753  28.7724083
   6.5401673  20.0792753  28.3434083   9.2971673  31.0542753  30.0374083
   9.5031673  31.3552753  30.8294083   9.2361673  31.7762753  29.5524083
   9.3181673  31.2052753  30.0824083   8.8311673  35.2682753  34.2834083
   8.0781673  35.2502753  33.8424083   8.9991673  36.1202753  34.3674083
   8.7451673  35.3912753  34.2304083   4.0681673  24.5352753  33.4534083
   3.7461673  23.9592753  32.8834083   3.7091673  25.2902753  33.2074083
   3.9681673  24.5612753  33.3334083   4.8641673  17.7872753  18.0804083
   4.9421673  18.0342753  17.2474083   4.1211673  18.1642753  18.3384083
   4.7661673  17.8792753  17.9954083  14.1091673  29.6932753  29.4954083
  14.0771673  28.8312753  29.3604083  13.4161673  29.9952753  29.0614083
  14.0021673  29.6102753  29.4114083   2.5031673  34.8912753  33.7014083
   2.5441673  35.0172753  34.5644083   3.1541673  34.3312753  33.5454083
   2.6051673  34.8272753  33.8064083  12.2141673  32.9532753  28.2924083
  12.7411673  32.8702753  27.6014083  11.8231673  32.1752753  28.3464083
  12.2341673  32.8262753  28.1984083   8.7281673  18.3972753  27.5004083
   9.3981673  18.9412753  27.6274083   8.2251673  18.8212753  26.9274083
   8.7531673  18.5402753  27.4344083   8.0871673  24.2052753  24.9934083
   8.6381673  23.5982753  25.2934083   7.6621673  24.4682753  25.7084083
   8.1061673  24.1542753  25.1424083  10.0571673  26.0362753  21.5554083
  10.1251673  25.1862753  21.7364083   9.2341673  26.1222753  21.2774083
   9.9451673  25.9232753  21.5414083   3.9761673  26.9272753  20.4934083
   4.0761673  27.0662753  19.6384083   4.7941673  26.8672753  20.7894083
   4.1111673  26.9382753  20.4104083  13.1361673  34.9912753  17.9734083
  13.7731673  34.8572753  18.5544083  12.7951673  34.1972753  17.8564083
  13.1801673  34.8542753  18.0414083  13.3311673  27.4092753  34.7064083
  13.9651673  27.2392753  35.2804083  13.7481673  27.8122753  34.0544083
  13.4861673  27.4442753  34.6954083   9.2111673  31.2562753  20.2954083
   8.9601673  31.1282753  21.1214083   8.8941673  30.5612753  19.8744083
   9.1271673  31.1352753  20.3554083  13.9561673  21.9732753  35.4444083
  13.7601673  22.6172753  35.9994083  13.2341673  21.4832753  35.4364083
  13.8211673  21.9962753  35.5254083  13.8551673  22.9142753  28.4154083
  13.0221673  23.1642753  28.3434083  13.7991673  22.0742753  28.6444083
  13.7241673  22.8272753  28.4384083   3.1151673  19.9022753  33.6094083
   3.3491673  19.3262753  32.9964083   2.2731673  19.7212753  33.7504083
   3.0251673  19.7902753  33.5394083  10.7421673  27.5202753  36.0614083
  11.6131673  27.4842753  36.0254083  10.5231673  27.9402753  35.3294083
  10.8391673  27.5762753  35.9484083   6.0971673  29.4642753  19.7254083
   6.8141673  29.1172753  19.3694083   6.0631673  30.2642753  19.3774083
   6.1981673  29.5312753  19.6214083   7.5061673  18.1052753   3.9641673
   7.2611673  18.5932753   3.2841673   8.3691673  18.0322753   3.8641673
   7.5971673  18.1662753   3.8491673   7.3151673  25.0212753   8.6351673
   6.7911673  25.6172753   8.9981673   7.7121673  24.6532753   9.3191673
   7.2961673  25.0552753   8.7901673   9.9861673  26.0882753   5.3111673
  10.0661673  26.0922753   4.4421673   9.4021673  25.4562753   5.4601673
   9.9111673  25.9952753   5.2051673   3.9751673  19.1922753   3.1191673
   3.9051673  19.8692753   2.5731673   4.7161673  18.8042753   2.8701673
   4.0741673  19.2352753   3.0011673   3.6981673  29.4212753  15.4131673
   3.4621673  29.4182753  16.2531673   2.9501673  29.2732753  14.9891673
   3.5521673  29.3982753  15.4741673   3.0781673  22.0272753   9.8951673
   3.7561673  22.0452753   9.3461673   3.0331673  21.1912753  10.1401673
   3.1711673  21.9062753   9.8501673   3.6801673  32.6132753  12.6761673
   3.8181673  33.3732753  12.2691673   4.4711673  32.2482753  12.7031673
   3.8171673  32.6722753  12.6201673   4.7751673  30.4982753   7.1811673
   5.1231673  29.6992753   7.2111673   5.4401673  31.0022753   6.9261673
   4.9251673  30.4542753   7.1481673   4.8321673  29.9472753   3.3921673
   5.1631673  29.3032753   3.8781673   5.0721673  29.7362753   2.5811673
   4.9161673  29.8212753   3.3441673   6.8001673  24.0782753  14.7311673
   5.9521673  23.9792753  14.5531673   6.8291673  24.8232753  15.1851673
   6.6791673  24.1742753  14.7721673  11.3581673  17.0382753  13.8451673
  11.2001673  17.8072753  13.4631673  10.5861673  16.8182753  14.1891673
  11.2201673  17.1192753  13.8401673   4.1471673  18.7532753   6.0601673
   4.2201673  19.6132753   6.1891673   4.1091673  18.6782753   5.1921673
   4.1521673  18.8692753   5.9511673   2.7761673  31.7322753   2.9411673
   2.1971673  31.4572753   3.5331673   3.4001673  31.1232753   2.9661673
   2.7831673  31.6022753   3.0321673   7.0871673  34.4122753   2.4531673
   7.3011673  34.9392753   3.1151673   7.8541673  34.2382753   2.0741673
   7.2321673  34.4642753   2.4951673   3.3611673  21.1282753  17.3501673
   3.4781673  20.6742753  16.6141673   3.6491673  21.9262753  17.1471673
   3.4211673  21.1792753  17.2111673  14.2141673  21.6522753   4.6541673
  13.8681673  22.3302753   5.0801673  13.5781673  21.0542753   4.6701673
  14.0691673  21.6642753   4.7191673   9.5261673  34.4222753  10.7581673
  10.2701673  34.8782753  10.7481673   9.4051673  34.2082753   9.9211673
   9.6181673  34.4582753  10.6331673   2.5301673  33.8972753   6.1881673
   3.3741673  34.0012753   5.9931673   2.2331673  34.7152753   6.2561673
   2.6111673  34.0332753   6.1691673   5.7431673  18.3682753  15.5021673
   5.9211673  17.5592753  15.2271673   5.6001673  18.8092753  14.7631673
   5.7481673  18.3142753  15.3521673   6.3371673  23.2942753   4.2751673
   6.6241673  23.0622753   3.4851673   7.0691673  23.3732753   4.7441673
   6.4871673  23.2712753   4.2281673  13.8891673  19.9752753  10.0231673
  14.6461673  20.0472753   9.5951673  13.9521673  19.2022753  10.4221673
  14.0101673  19.8722753  10.0181673   8.7801673  31.6072753  14.4621673
   8.7461673  31.9892753  15.2461673   9.6341673  31.5652753  14.2911673
   8.9011673  31.6572753  14.5531673   7.2321673  34.7712753  11.9601673
   8.0001673  34.6912753  11.5541673   6.6491673  34.6502753  11.3221673
   7.2591673  34.7412753  11.8061673  13.5091673  35.3742753   4.8611673
  13.0541673  36.0912753   5.0621673  12.8951673  34.8032753   4.6191673
  13.3511673  35.3962753   4.8551673   5.2811673  21.3842753   5.9931673
   5.3551673  21.9522753   5.3351673   5.4021673  21.8762753   6.7031673
   5.3091673  21.5412753   6.0011673  10.5061673  31.2192753   4.4051673
  11.2071673  30.7372753   4.5941673   9.8461673  30.6502753   4.4501673
  10.5121673  31.0642753   4.4391673   2.8451673  27.6402753   8.3661673
   3.0171673  27.4302753   9.1951673   2.1901673  27.1062753   8.1501673
   2.7741673  27.5302753   8.4571673   9.0731673  21.5542753  11.8811673
   8.9781673  21.8732753  12.6871673   8.4801673  20.9152753  11.8431673
   8.9711673  21.5062753  11.9951673   3.5951673  27.5782753  10.9561673
   3.6481673  28.4252753  11.1581673   3.3101673  27.2082753  11.6931673
   3.5611673  27.6482753  11.0941673   9.7721673  28.2732753  10.0861673
   9.2581673  27.8612753  10.6571673   9.6461673  29.1172753  10.2671673
   9.6781673  28.3372753  10.1971673  10.3291673  17.4982753   4.7171673
  10.3781673  17.1802753   5.5281673  10.6521673  16.8542753   4.2241673
  10.3841673  17.3562753   4.7641673  12.7931673  21.7342753  13.0251673
  13.5651673  21.5092753  13.3621673  12.3181673  21.9512753  13.7251673
  12.8371673  21.7332753  13.1781673  15.2591673  33.2212753  14.4671673
  14.5771673  33.5312753  14.0201673  14.8901673  32.7632753  15.1121673
  15.1031673  33.1992753  14.4961673   2.5291673  28.4512753   3.7791673
   3.2421673  28.9462753   3.8691673   2.7511673  27.8842753   3.1531673
   2.6671673  28.4402753   3.7001673   4.3321673  23.8042753  17.1951673
   3.8481673  24.3812753  17.6371673   4.3041673  24.0992753  16.3741673
   4.2561673  23.9332753  17.1391673  15.4301673  24.4882753  11.8071673
  15.6451673  23.6882753  11.5311673  14.5801673  24.5482753  11.6181673
  15.3361673  24.3792753  11.7381673   7.0521673  32.1542753   6.1061673
   6.5291673  32.7882753   5.8131673   7.3621673  31.7902753   5.3771673
   7.0201673  32.1942753   5.9551673   9.5631673  21.9562753   6.6031673
   9.9071673  22.1082753   7.3901673   9.1101673  21.2182753   6.7161673
   9.5471673  21.8692753   6.7361673  13.0931673  33.6032753  12.5571673
  12.4221673  34.1172753  12.7751673  13.1561673  33.7032753  11.6931673
  13.0031673  33.6942753  12.4621673   1.7771673  31.1282753   5.6921673
   1.9031673  31.9712753   5.8791673   2.4451673  30.7292753   6.0881673
   1.8951673  31.1942753   5.7781673  10.8841673  23.2882753   9.1571673
  10.2221673  23.6162753   9.6201673  11.0711673  23.9222753   8.5881673
  10.8141673  23.4302753   9.1411673   5.0891673  34.3522753  10.1531673
   4.8121673  33.7112753   9.6301673   4.8811673  35.0782753   9.7151673
   5.0181673  34.3652753  10.0111673   7.5291673  19.1942753  12.5861673
   7.6781673  18.3692753  12.3431673   7.9081673  19.2492753  13.3701673
   7.6071673  19.0802753  12.6661673   9.0771673  21.2572753   2.6681673
   9.5671673  21.9742753   2.5911673   8.2871673  21.5182753   2.4051673
   9.0331673  21.4012753   2.6181673  10.3911673  29.1352753  14.5781673
  10.8751673  29.8532753  14.6761673  10.7851673  28.7082753  13.9271673
  10.5211673  29.1782753  14.4961673   4.6871673  31.9802753  15.7551673
   5.0411673  31.8022753  16.5321673   4.2511673  31.2512753  15.5561673
   4.6751673  31.8462753  15.8411673   5.6591673  22.7272753   8.3931673
   6.1391673  23.4262753   8.6011673   6.0321673  22.0802753   8.8441673
   5.7851673  22.7352753   8.4901673  12.8201673  29.7662753   4.6481673
  13.1761673  29.4162753   5.3631673  12.8121673  29.1052753   4.0781673
  12.8721673  29.6162753   4.6691673   8.8651673  32.8322753   8.4921673
   8.2621673  32.5362753   7.9351673   9.4101673  33.2842753   7.9831673
   8.8561673  32.8552753   8.3341673   8.8781673  29.6832753   7.8921673
   8.0811673  29.9072753   8.1661673   9.1361673  29.0892753   8.4771673
   8.7981673  29.6282753   8.0191673   2.7701673  34.4952753   2.3401673
   2.6231673  33.7192753   2.7111673   3.4591673  34.3482753   1.8251673
   2.8501673  34.3582753   2.3191673  12.1381673  27.6812753  12.7381673
  12.1931673  27.8062753  11.8761673  12.8911673  28.0012753  13.0401673
  12.2571673  27.7462753  12.6551673   8.3291673  33.0302753  17.0151673
   8.4931673  33.3132753  17.8241673   8.5921673  33.6912753  16.5101673
   8.3921673  33.1702753  17.0601673  13.1701673  17.9792753  15.7251673
  12.5331673  17.5792753  15.2831673  13.1961673  17.5482753  16.4831673
  13.0801673  17.8572753  15.7711673   7.8691673  27.4872753  12.3381673
   7.7141673  28.0972753  12.9421673   8.4031673  26.9292753  12.7441673
   7.9251673  27.4952753  12.4871673   6.2531673  25.8872753   2.9961673
   6.3121673  26.5372753   3.5751673   6.0641673  25.1912753   3.4871673
   6.2341673  25.8802753   3.1541673  11.4791673  30.2162753   8.8651673
  11.0001673  30.5142753   8.1991673  11.1231673  29.4402753   9.0431673
  11.3561673  30.1452753   8.7931673   5.4761673  27.9342753   7.4271673
   4.6291673  27.7402753   7.5081673   5.8001673  27.7692753   8.2201673
   5.3981673  27.8812753   7.5561673   2.5541673  22.7982753   6.4781673
   3.4001673  22.6082753   6.5761673   2.1841673  22.0212753   6.3401673
   2.6241673  22.6552753   6.4721673  12.4101673  27.1582753   9.9841673
  12.4031673  26.3822753  10.3821673  11.5691673  27.3922753   9.9771673
  12.2851673  27.0782753  10.0421673  13.6661673  27.2292753   7.4211673
  13.3801673  27.6302753   8.1411673  14.5261673  27.1672753   7.5481673
  13.7511673  27.2792753   7.5461673  11.3281673  21.1532753  15.9611673
  10.8031673  21.6122753  16.4851673  10.9671673  20.3582753  15.9551673
  11.1971673  21.1032753  16.0371673  14.7971673  32.8622753   7.9501673
  15.0871673  33.1192753   7.1691673  15.4921673  32.9582753   8.4691673
  14.9431673  32.9142753   7.9111673   9.8201673  24.7222753  16.0371673
   9.8931673  24.8262753  16.9001673   9.1861673  25.2802753  15.8161673
   9.7371673  24.8202753  16.1321673  12.0881673  25.0412753  14.4021673
  12.4071673  25.8272753  14.6051673  11.7181673  24.7712753  15.1451673
  12.0811673  25.1172753  14.5421673  11.8841673  23.2992753   5.5911673
  11.1391673  22.9762753   5.9091673  11.8861673  24.1252753   5.8711673
  11.7741673  23.3732753   5.6791673  14.7861673  25.5832753  17.1371673
  14.7341673  25.2422753  16.3361673  15.5231673  26.0502753  17.1151673
  14.8871673  25.6022753  17.0151673  14.3241673  29.2592753  13.3431673
  14.9521673  28.7102753  13.0871673  14.2631673  29.8242753  12.6811673
  14.4081673  29.2622753  13.2071673   3.4581673  30.4902753  10.6391673
   3.1601673  31.0822753  11.2061673   3.5131673  30.9322753   9.8901673
   3.4221673  30.6432753  10.6121673  10.7961673  19.6292753  13.0521673
  11.5401673  20.0812753  12.9891673  10.2301673  20.0992753  12.5831673
  10.8231673  19.7662753  12.9741673   5.9741673  26.9132753  10.1301673
   6.4501673  27.2872753  10.7581673   5.1511673  27.0472753  10.3891673
   5.9231673  26.9882753  10.2611673   2.6841673  22.5162753  12.8711673
   2.8451673  21.7722753  13.2981673   2.6391673  22.2672753  12.0361673
   2.7011673  22.3692753  12.8111673   5.2381673  34.3062753   5.3581673
   5.7841673  34.9852753   5.4121673   4.8881673  34.3882753   4.5631673
   5.2671673  34.4192753   5.2481673  12.0811673  17.6092753  10.7221673
  11.8011673  18.4342753  10.6781673  12.7971673  17.6622753  11.2181673
  12.1461673  17.7392753  10.7891673   4.4361673  18.3242753  12.7511673
   5.1411673  18.6442753  12.3491673   4.6771673  17.5172753  12.9781673
   4.5751673  18.2522753  12.7251673   3.4211673  32.5342753   8.7471673
   2.7971673  33.1162753   8.5651673   3.6691673  32.2482753   7.9611673
   3.3651673  32.5782753   8.6041673   7.7301673  29.1682753  15.7361673
   8.4871673  29.4542753  15.4101673   7.1831673  29.2202753  15.0581673
   7.7611673  29.2182753  15.5871673  11.6391673  31.7182753  14.2401673
  11.9851673  31.9882753  14.9941673  11.9331673  32.3002753  13.6601673
  11.7341673  31.8442753  14.2661673   8.9611673  22.4792753  14.4041673
   8.3131673  22.9492753  14.7521673   9.5261673  22.3902753  15.0631673
   8.9491673  22.5352753  14.5531673   8.6491673  24.0162753  10.7021673
   8.9511673  24.4362753  11.4051673   8.6851673  23.1762753  10.9341673
   8.6991673  23.9542753  10.8401673   6.0741673  34.1832753  14.6271673
   6.5521673  33.5832753  14.2111673   5.7231673  33.7402753  15.2921673
   6.0931673  34.0292753  14.6641673  11.1971673  23.4632753   2.9541673
  11.4041673  23.2622753   3.7781673  11.9531673  23.7312753   2.6121673
  11.3391673  23.4732753   3.0251673   4.4921673  18.3622753   8.8591673
   3.6661673  18.2132753   9.0961673   4.4521673  18.3972753   7.9881673
   4.3641673  18.3452753   8.7651673  12.2191673  19.5462753   4.4281673
  11.5051673  19.0752753   4.5991673  12.0571673  19.8872753   3.6421673
  12.0901673  19.5272753   4.3371673  12.6621673  27.4902753   2.8081673
  13.1381673  26.7612753   2.7601673  11.8411673  27.2042753   2.7321673
  12.6111673  27.3402753   2.7891673   6.1331673  29.4022753  13.6471673
   5.3381673  29.3382753  13.9981673   6.2041673  30.2492753  13.4521673
   6.0261673  29.5172753  13.6701673   1.9631673  35.6092753   8.9641673
   1.9741673  35.6682753   9.8341673   1.5381673  34.8622753   8.8141673
   1.9021673  35.5072753   9.0701673   8.8781673  28.6572753   5.1631673
   8.9541673  28.9982753   5.9621673   9.0471673  27.8102753   5.2841673
   8.9141673  28.5822753   5.2991673   6.4001673  27.9312753   4.7281673
   6.1021673  27.6162753   5.4851673   7.0951673  28.4042753   4.9631673
   6.4591673  27.9542753   4.8751673   6.6221673  32.0492753  12.7551673
   7.3091673  31.9352753  13.2801673   6.7561673  32.8402753  12.4111673
   6.7431673  32.1492753  12.7821673  14.7981673  24.6582753  14.5661673
  13.9431673  24.5362753  14.6921673  14.9511673  24.2632753  13.8031673
  14.6941673  24.5812753  14.4721673   9.3111673  25.3232753  13.1421673
   9.0561673  24.6042753  13.5641673  10.1321673  25.4392753  13.4121673
   9.3951673  25.2342753  13.2441673   7.2451673  26.5132753  16.3291673
   7.5681673  27.1992753  15.8971673   6.5411673  26.8362753  16.7311673
   7.1881673  26.6622753  16.3241673  10.3291673  34.8872753   7.2581673
   9.8781673  35.5302753   7.6371673  11.0371673  34.8082753   7.7631673
  10.3671673  34.9702753   7.3891673   7.0301673  29.9772753  10.1881673
   6.3361673  30.3792753  10.5311673   7.7071673  30.4102753  10.5271673
   7.0271673  30.1002753  10.2891673  12.4071673  32.5702753  16.7681673
  13.1831673  32.1802753  16.8511673  11.9381673  32.2342753  17.4231673
  12.4521673  32.4632753  16.8771673   7.3521673  31.5682753   3.3571673
   7.1471673  32.4012753   3.1981673   6.5771673  31.1862753   3.4791673
   7.2071673  31.6352753   3.3521673  12.5341673  24.7492753  11.6061673
  12.5321673  23.8862753  11.7301673  12.6011673  25.0732753  12.4131673
  12.5441673  24.6692753  11.7431673   8.4131673  19.5492753  15.3881673
   8.5051673  20.2612753  15.8821673   7.7761673  19.1042753  15.7851673
   8.3321673  19.5882753  15.5201673   7.4071673  19.7392753   6.2421673
   6.7071673  20.2572753   6.1861673   7.4451673  19.3592753   5.4581673
   7.3091673  19.7602753   6.1181673  11.0051673  20.2552753   9.0421673
  11.8601673  20.3542753   9.1871673  10.6361673  20.8082753   9.6071673
  11.0771673  20.3522753   9.1471673   2.0331673  26.4812753  13.4191673
   1.6371673  27.2552753  13.4941673   1.6271673  26.1082753  12.7431673
   1.9151673  26.5402753  13.3301673  11.3091673  25.5352753   7.5331673
  11.9751673  26.0762753   7.6931673  10.9641673  25.8462753   6.7941673
  11.3561673  25.6612753   7.4481673  11.6221673  33.6012753   3.3401673
  11.4481673  32.9472753   3.8901673  12.3351673  33.3302753   2.9171673
  11.7021673  33.4642753   3.3591673   2.4621673  19.4582753  10.8691673
   1.5981673  19.5422753  10.9491673   2.6821673  18.9442753  11.5381673
   2.3671673  19.3952753  10.9801673  14.4801673  18.0932753  12.1981673
  14.4281673  18.0492753  13.0681673  15.1671673  17.5902753  12.0081673
  14.5741673  18.0132753  12.2981673   6.5651673  20.2062753   9.2431673
   5.8281673  19.7522753   9.3561673   7.1361673  19.8042753   9.7661673
   6.5401673  20.0792753   9.3371673   9.2971673  31.0542753  11.0311673
   9.5031673  31.3552753  11.8231673   9.2361673  31.7762753  10.5461673
   9.3181673  31.2052753  11.0761673   8.8311673  35.2682753  15.2771673
   8.0781673  35.2502753  14.8361673   8.9991673  36.1202753  15.3611673
   8.7451673  35.3912753  15.2241673   4.0681673  24.5352753  14.4471673
   3.7461673  23.9592753  13.8771673   3.7091673  25.2902753  14.2011673
   3.9681673  24.5612753  14.3271673  14.1091673  29.6932753  10.4891673
  14.0771673  28.8312753  10.3541673  13.4161673  29.9952753  10.0551673
  14.0021673  29.6102753  10.4051673   2.5031673  34.8912753  14.6951673
   2.5441673  35.0172753  15.5581673   3.1541673  34.3312753  14.5391673
   2.6051673  34.8272753  14.8001673  12.2141673  32.9532753   9.2861673
  12.7411673  32.8702753   8.5951673  11.8231673  32.1752753   9.3401673
  12.2341673  32.8262753   9.1921673   8.7281673  18.3972753   8.4941673
   9.3981673  18.9412753   8.6211673   8.2251673  18.8212753   7.9211673
   8.7531673  18.5402753   8.4281673   8.0871673  24.2052753   5.9871673
   8.6381673  23.5982753   6.2871673   7.6621673  24.4682753   6.7021673
   8.1061673  24.1542753   6.1361673  10.0571673  26.0362753   2.5491673
  10.1251673  25.1862753   2.7301673   9.2341673  26.1222753   2.2711673
   9.9451673  25.9232753   2.5351673  13.3311673  27.4092753  15.7001673
  13.9651673  27.2392753  16.2741673  13.7481673  27.8122753  15.0481673
  13.4861673  27.4442753  15.6891673  13.9561673  21.9732753  16.4381673
  13.7601673  22.6172753  16.9931673  13.2341673  21.4832753  16.4301673
  13.8211673  21.9962753  16.5191673  13.8551673  22.9142753   9.4091673
  13.0221673  23.1642753   9.3371673  13.7991673  22.0742753   9.6381673
  13.7241673  22.8272753   9.4321673   3.1151673  19.9022753  14.6031673
   3.3491673  19.3262753  13.9901673   2.2731673  19.7212753  14.7441673
   3.0251673  19.7902753  14.5331673  10.7421673  27.5202753  17.0551673
  11.6131673  27.4842753  17.0191673  10.5231673  27.9402753  16.3231673
  10.8391673  27.5762753  16.9421673   7.3151673   6.5431673  84.6601313
   6.7911673   7.1391673  85.0231313   7.7121673   6.1751673  85.3441313
   7.2961673   6.5771673  84.8151313  13.4591673  13.9841673  77.6311313
  14.1601673  13.4651673  77.6271313  12.8721673  13.5391673  77.1621313
  13.4761673  13.8411673  77.5611313   9.9861673   7.6101673  81.3361313
  10.0661673   7.6141673  80.4671313   9.4021673   6.9781673  81.4851313
   9.9111673   7.5171673  81.2301313   3.0781673   3.5491673  85.9201313
   3.7561673   3.5671673  85.3711313   3.0331673   2.7131673  86.1651313
   3.1711673   3.4281673  85.8751313   3.6801673  14.1351673  88.7011313
   3.8181673  14.8951673  88.2941313   4.4711673  13.7701673  88.7281313
   3.8171673  14.1941673  88.6451313   4.7751673  12.0201673  83.2061313
   5.1231673  11.2211673  83.2361313   5.4401673  12.5241673  82.9511313
   4.9251673  11.9761673  83.1731313   4.8321673  11.4691673  79.4171313
   5.1631673  10.8251673  79.9031313   5.0721673  11.2581673  78.6061313
   4.9161673  11.3431673  79.3691313   8.8201673   3.2011673  74.3841313
   8.3701673   3.8821673  74.6911313   8.9341673   2.6971673  75.0871313
   8.7711673   3.2271673  74.5331313   2.7761673  13.2541673  78.9661313
   2.1971673  12.9791673  79.5581313   3.4001673  12.6451673  78.9911313
   2.7831673  13.1241673  79.0571313   8.9191673  15.5421673  76.4881313
   9.6461673  16.0141673  76.5901313   9.1481673  14.7481673  76.7681313
   9.0611673  15.4951673  76.5451313   7.0871673  15.9341673  78.4781313
   7.3011673  16.4611673  79.1401313   7.8541673  15.7601673  78.0991313
   7.2321673  15.9861673  78.5201313  14.2141673   3.1741673  80.6791313
  13.8681673   3.8521673  81.1051313  13.5781673   2.5761673  80.6951313
  14.0691673   3.1861673  80.7441313   9.5261673  15.9441673  86.7831313
  10.2701673  16.4001673  86.7731313   9.4051673  15.7301673  85.9461313
   9.6181673  15.9801673  86.6581313   2.5301673  15.4191673  82.2131313
   3.3741673  15.5231673  82.0181313   2.2331673  16.2371673  82.2811313
   2.6111673  15.5551673  82.1941313   6.3371673   4.8161673  80.3001313
   6.6241673   4.5841673  79.5101313   7.0691673   4.8951673  80.7691313
   6.4871673   4.7931673  80.2531313   7.0591673   5.1551673  75.4211313
   7.3401673   5.9431673  75.6701313   6.2831673   5.3201673  75.0581313
   6.9861673   5.2961673  75.4041313  11.1001673  17.1291673  76.8881313
  11.7651673  16.9811673  76.3431313  11.4601673  17.0461673  77.6781313
  11.2521673  17.0951673  76.9241313   5.9181673  13.3261673  75.2371313
   5.7371673  13.8711673  75.8941313   6.6841673  13.6161673  74.9361313
   6.0041673  13.4501673  75.2901313   6.6831673   3.5981673  77.6051313
   6.1751673   2.9361673  77.3511313   6.7351673   4.1021673  76.8951313
   6.6161673   3.5751673  77.4631313   7.2321673  16.2931673  87.9851313
   8.0001673  16.2131673  87.5791313   6.6491673  16.1721673  87.3471313
   7.2591673  16.2631673  87.8311313  13.5091673  16.8961673  80.8861313
  13.0541673  17.6131673  81.0871313  12.8951673  16.3251673  80.6441313
  13.3511673  16.9181673  80.8801313   5.2811673   2.9061673  82.0181313
   5.3551673   3.4741673  81.3601313   5.4021673   3.3981673  82.7281313
   5.3091673   3.0631673  82.0261313  10.5061673  12.7411673  80.4301313
  11.2071673  12.2591673  80.6191313   9.8461673  12.1721673  80.4751313
  10.5121673  12.5861673  80.4641313   2.8451673   9.1621673  84.3911313
   3.0171673   8.9521673  85.2201313   2.1901673   8.6281673  84.1751313
   2.7741673   9.0521673  84.4821313   9.0731673   3.0761673  87.9061313
   8.9781673   3.3951673  88.7121313   8.4801673   2.4371673  87.8681313
   8.9711673   3.0281673  88.0201313   3.5951673   9.1001673  86.9811313
   3.6481673   9.9471673  87.1831313   3.3101673   8.7301673  87.7181313
   3.5611673   9.1701673  87.1191313   9.7721673   9.7951673  86.1111313
   9.2581673   9.3831673  86.6821313   9.6461673  10.6391673  86.2921313
   9.6781673   9.8591673  86.2221313  12.7931673   3.2561673  89.0501313
  13.5651673   3.0311673  89.3871313  12.3181673   3.4731673  89.7501313
  12.8371673   3.2551673  89.2031313  13.0251673  10.2341673  76.2381313
  13.1441673   9.9471673  77.0531313  13.8321673  10.2551673  75.9081313
  13.1611673  10.1951673  76.3101313  10.9201673   6.7711673  75.8231313
  10.7001673   7.5021673  75.4011313  10.4721673   6.8221673  76.5701313
  10.8211673   6.8861673  75.8711313   2.5291673   9.9731673  79.8041313
   3.2421673  10.4681673  79.8941313   2.7511673   9.4061673  79.1781313
   2.6671673   9.9621673  79.7251313  15.4301673   6.0101673  87.8321313
  15.6451673   5.2101673  87.5561313  14.5801673   6.0701673  87.6431313
  15.3361673   5.9011673  87.7631313   7.0521673  13.6761673  82.1311313
   6.5291673  14.3101673  81.8381313   7.3621673  13.3121673  81.4021313
   7.0201673  13.7161673  81.9801313   9.5631673   3.4781673  82.6281313
   9.9071673   3.6301673  83.4151313   9.1101673   2.7401673  82.7411313
   9.5471673   3.3911673  82.7611313   4.0391673   2.6981673  77.0851313
   4.0371673   2.5811673  76.2201313   3.8581673   3.5461673  77.1771313
   4.0121673   2.8061673  76.9711313  13.0931673  15.1251673  88.5821313
  12.4221673  15.6391673  88.8001313  13.1561673  15.2251673  87.7181313
  13.0031673  15.2161673  88.4871313   1.7771673  12.6501673  81.7171313
   1.9031673  13.4931673  81.9041313   2.4451673  12.2511673  82.1131313
   1.8951673  12.7161673  81.8031313  10.8841673   4.8101673  85.1821313
  10.2221673   5.1381673  85.6451313  11.0711673   5.4441673  84.6131313
  10.8141673   4.9521673  85.1661313   5.0891673  15.8741673  86.1781313
   4.8121673  15.2331673  85.6551313   4.8811673  16.6001673  85.7401313
   5.0181673  15.8871673  86.0361313   9.0771673   2.7791673  78.6931313
   9.5671673   3.4961673  78.6161313   8.2871673   3.0401673  78.4301313
   9.0331673   2.9231673  78.6431313   5.6591673   4.2491673  84.4181313
   6.1391673   4.9481673  84.6261313   6.0321673   3.6021673  84.8691313
   5.7851673   4.2571673  84.5151313   7.8481673   7.4181673  76.6921313
   7.8401673   8.1401673  76.2021313   7.2091673   7.5531673  77.2691313
   7.7531673   7.5451673  76.7051313  12.8201673  11.2881673  80.6731313
  13.1761673  10.9381673  81.3881313  12.8121673  10.6271673  80.1031313
  12.8721673  11.1381673  80.6941313   8.8651673  14.3541673  84.5171313
   8.2621673  14.0581673  83.9601313   9.4101673  14.8061673  84.0081313
   8.8561673  14.3771673  84.3591313   8.8781673  11.2051673  83.9171313
   8.0811673  11.4291673  84.1911313   9.1361673  10.6111673  84.5021313
   8.7981673  11.1501673  84.0441313   2.7701673  16.0171673  78.3651313
   2.6231673  15.2411673  78.7361313   3.4591673  15.8701673  77.8501313
   2.8501673  15.8801673  78.3441313   5.0621673  15.5331673  76.7671313
   5.6841673  15.6961673  77.3571313   5.0981673  16.2241673  76.2351313
   5.1591673  15.6591673  76.7761313  12.1381673   9.2031673  88.7631313
  12.1931673   9.3281673  87.9011313  12.8911673   9.5231673  89.0651313
  12.2571673   9.2681673  88.6801313   7.8691673   9.0091673  88.3631313
   7.7141673   9.6191673  88.9671313   8.4031673   8.4511673  88.7691313
   7.9251673   9.0171673  88.5121313   6.2531673   7.4091673  79.0211313
   6.3121673   8.0591673  79.6001313   6.0641673   6.7131673  79.5121313
   6.2341673   7.4021673  79.1791313  11.4791673  11.7381673  84.8901313
  11.0001673  12.0361673  84.2241313  11.1231673  10.9621673  85.0681313
  11.3561673  11.6671673  84.8181313   5.4761673   9.4561673  83.4521313
   4.6291673   9.2621673  83.5331313   5.8001673   9.2911673  84.2451313
   5.3981673   9.4031673  83.5811313   2.2281673  16.1861673  74.3381313
   2.6671673  15.4891673  74.6261313   2.4351673  16.8101673  74.9111313
   2.3241673  16.1751673  74.4651313   2.5541673   4.3201673  82.5031313
   3.4001673   4.1301673  82.6011313   2.1841673   3.5431673  82.3651313
   2.6241673   4.1771673  82.4971313  15.1711673  15.9041673  76.8301313
  15.8651673  15.4371673  76.5821313  14.6321673  15.3061673  77.1671313
  15.1941673  15.7461673  76.8431313  12.4101673   8.6801673  86.0091313
  12.4031673   7.9041673  86.4071313  11.5691673   8.9141673  86.0021313
  12.2851673   8.6001673  86.0671313  13.6661673   8.7511673  83.4461313
  13.3801673   9.1521673  84.1661313  14.5261673   8.6891673  83.5731313
  13.7511673   8.8011673  83.5711313   3.3551673   5.5531673  77.3541313
   3.6271673   6.3791673  77.4211313   2.4921673   5.6281673  77.2581313
   3.2681673   5.6861673  77.3491313  14.7971673  14.3841673  83.9751313
  15.0871673  14.6411673  83.1941313  15.4921673  14.4801673  84.4941313
  14.9431673  14.4361673  83.9361313  11.4021673  12.9871673  75.9571313
  11.7361673  12.1811673  75.9921313  10.6471673  12.9151673  76.3871313
  11.3401673  12.8571673  76.0261313  11.8841673   4.8211673  81.6161313
  11.1391673   4.4981673  81.9341313  11.8861673   5.6471673  81.8961313
  11.7741673   4.8951673  81.7041313  14.3241673  10.7811673  89.3681313
  14.9521673  10.2321673  89.1121313  14.2631673  11.3461673  88.7061313
  14.4081673  10.7841673  89.2321313   8.7761673  10.8621673  75.3601313
   9.4601673  10.3481673  75.1911313   8.3591673  10.9081673  74.5951313
   8.8151673  10.7931673  75.2221313   3.4581673  12.0121673  86.6641313
   3.1601673  12.6041673  87.2311313   3.5131673  12.4541673  85.9151313
   3.4221673  12.1651673  86.6371313   5.9741673   8.4351673  86.1551313
   6.4501673   8.8091673  86.7831313   5.1511673   8.5691673  86.4141313
   5.9231673   8.5101673  86.2861313   2.6841673   4.0381673  88.8961313
   2.8451673   3.2941673  89.3231313   2.6391673   3.7891673  88.0611313
   2.7011673   3.8911673  88.8361313   5.2381673  15.8281673  81.3831313
   5.7841673  16.5071673  81.4371313   4.8881673  15.9101673  80.5881313
   5.2671673  15.9411673  81.2731313   3.4211673  14.0561673  84.7721313
   2.7971673  14.6381673  84.5901313   3.6691673  13.7701673  83.9861313
   3.3651673  14.1001673  84.6291313  13.5021673   5.3861673  75.6041313
  13.8801673   6.0631673  75.2041313  12.6601673   5.6101673  75.6351313
  13.4331673   5.5191673  75.5491313   5.0151673   8.8321673  74.6871313
   4.2101673   8.6551673  74.4021313   4.9821673   9.6831673  74.8791313
   4.8911673   8.9311673  74.6741313   8.6491673   5.5381673  86.7271313
   8.9511673   5.9581673  87.4301313   8.6851673   4.6981673  86.9591313
   8.6991673   5.4761673  86.8651313  11.1971673   4.9851673  78.9791313
  11.4041673   4.7841673  79.8031313  11.9531673   5.2531673  78.6371313
  11.3391673   4.9951673  79.0501313  12.6621673   9.0121673  78.8331313
  13.1381673   8.2831673  78.7851313  11.8411673   8.7261673  78.7571313
  12.6111673   8.8621673  78.8141313   6.1331673  10.9241673  89.6721313
   5.3381673  10.8601673  90.0231313   6.2041673  11.7711673  89.4771313
   6.0261673  11.0391673  89.6951313   1.9631673  17.1311673  84.9891313
   1.9741673  17.1901673  85.8591313   1.5381673  16.3841673  84.8391313
   1.9021673  17.0291673  85.0951313   8.8781673  10.1791673  81.1881313
   8.9541673  10.5201673  81.9871313   9.0471673   9.3321673  81.3091313
   8.9141673  10.1041673  81.3241313   6.4001673   9.4531673  80.7531313
   6.1021673   9.1381673  81.5101313   7.0951673   9.9261673  80.9881313
   6.4591673   9.4761673  80.9001313   6.6221673  13.5711673  88.7801313
   7.3091673  13.4571673  89.3051313   6.7561673  14.3621673  88.4361313
   6.7431673  13.6711673  88.8071313   9.3111673   6.8451673  89.1671313
   9.0561673   6.1261673  89.5891313  10.1321673   6.9611673  89.4371313
   9.3951673   6.7561673  89.2691313  10.3291673  16.4091673  83.2831313
   9.8781673  17.0521673  83.6621313  11.0371673  16.3301673  83.7881313
  10.3671673  16.4921673  83.4141313   7.0301673  11.4991673  86.2131313
   6.3361673  11.9011673  86.5561313   7.7071673  11.9321673  86.5521313
   7.0271673  11.6221673  86.3141313  13.4321673   6.1251673  78.2751313
  13.5351673   6.0671673  77.4111313  14.1731673   5.7931673  78.5931313
  13.5571673   6.0681673  78.1941313   7.3521673  13.0901673  79.3821313
   7.1471673  13.9231673  79.2231313   6.5771673  12.7081673  79.5041313
   7.2071673  13.1571673  79.3771313  12.5341673   6.2711673  87.6311313
  12.5321673   5.4081673  87.7551313  12.6011673   6.5951673  88.4381313
  12.5441673   6.1911673  87.7681313   2.7141673  13.3521673  75.7911313
   3.1551673  13.4321673  76.5391313   1.9091673  13.1361673  76.0491313
   2.6601673  13.3321673  75.9401313  11.0051673   1.7771673  85.0671313
  11.8601673   1.8761673  85.2121313  10.6361673   2.3301673  85.6321313
  11.0771673   1.8741673  85.1721313   2.0331673   8.0031673  89.4441313
   1.6371673   8.7771673  89.5191313   1.6271673   7.6301673  88.7681313
   1.9151673   8.0621673  89.3551313  11.3091673   7.0571673  83.5581313
  11.9751673   7.5981673  83.7181313  10.9641673   7.3681673  82.8191313
  11.3561673   7.1831673  83.4731313  11.6221673  15.1231673  79.3651313
  11.4481673  14.4691673  79.9151313  12.3351673  14.8521673  78.9421313
  11.7021673  14.9861673  79.3841313   2.8621673  10.6671673  75.1351313
   2.0441673  10.3991673  75.2751313   2.8341673  11.5191673  75.3201313
   2.7371673  10.7541673  75.1831313   9.2971673  12.5761673  87.0561313
   9.5031673  12.8771673  87.8481313   9.2361673  13.2981673  86.5711313
   9.3181673  12.7271673  87.1011313  14.1091673  11.2151673  86.5141313
  14.0771673  10.3531673  86.3791313  13.4161673  11.5171673  86.0801313
  14.0021673  11.1321673  86.4301313  12.2141673  14.4751673  85.3111313
  12.7411673  14.3921673  84.6201313  11.8231673  13.6971673  85.3651313
  12.2341673  14.3481673  85.2171313   8.0871673   5.7271673  82.0121313
   8.6381673   5.1201673  82.3121313   7.6621673   5.9901673  82.7271313
   8.1061673   5.6761673  82.1611313  10.0571673   7.5581673  78.5741313
  10.1251673   6.7081673  78.7551313   9.2341673   7.6441673  78.2961313
   9.9451673   7.4451673  78.5601313   3.9761673   8.4491673  77.5121313
   4.0761673   8.5881673  76.6571313   4.7941673   8.3891673  77.8081313
   4.1111673   8.4601673  77.4291313  13.1361673  16.5131673  74.9921313
  13.7731673  16.3791673  75.5731313  12.7951673  15.7191673  74.8751313
  13.1801673  16.3761673  75.0601313   9.2111673  12.7781673  77.3141313
   8.9601673  12.6501673  78.1401313   8.8941673  12.0831673  76.8931313
   9.1271673  12.6571673  77.3741313  13.8551673   4.4361673  85.4341313
  13.0221673   4.6861673  85.3621313  13.7991673   3.5961673  85.6631313
  13.7241673   4.3491673  85.4571313   6.0971673  10.9861673  76.7441313
   6.8141673  10.6391673  76.3881313   6.0631673  11.7861673  76.3961313
   6.1981673  11.0531673  76.6401313   7.3151673   6.5431673  65.6538903
   6.7911673   7.1391673  66.0168903   7.7121673   6.1751673  66.3378903
   7.2961673   6.5771673  65.8088903  13.4591673  13.9841673  58.6248903
  14.1601673  13.4651673  58.6208903  12.8721673  13.5391673  58.1558903
  13.4761673  13.8411673  58.5548903   9.9861673   7.6101673  62.3298903
  10.0661673   7.6141673  61.4608903   9.4021673   6.9781673  62.4788903
   9.9111673   7.5171673  62.2238903   3.6981673  10.9431673  72.4318903
   3.4621673  10.9401673  73.2718903   2.9501673  10.7951673  72.0078903
   3.5521673  10.9201673  72.4928903   3.0781673   3.5491673  66.9138903
   3.7561673   3.5671673  66.3648903   3.0331673   2.7131673  67.1588903
   3.1711673   3.4281673  66.8688903   3.6801673  14.1351673  69.6948903
   3.8181673  14.8951673  69.2878903   4.4711673  13.7701673  69.7218903
   3.8171673  14.1941673  69.6388903   4.7751673  12.0201673  64.1998903
   5.1231673  11.2211673  64.2298903   5.4401673  12.5241673  63.9448903
   4.9251673  11.9761673  64.1668903   4.8321673  11.4691673  60.4108903
   5.1631673  10.8251673  60.8968903   5.0721673  11.2581673  59.5998903
   4.9161673  11.3431673  60.3628903   6.8001673   5.6001673  71.7498903
   5.9521673   5.5011673  71.5718903   6.8291673   6.3451673  72.2038903
   6.6791673   5.6961673  71.7908903   8.8201673   3.2011673  55.3778903
   8.3701673   3.8821673  55.6848903   8.9341673   2.6971673  56.0808903
   8.7711673   3.2271673  55.5268903   2.7761673  13.2541673  59.9598903
   2.1971673  12.9791673  60.5518903   3.4001673  12.6451673  59.9848903
   2.7831673  13.1241673  60.0508903   8.9191673  15.5421673  57.4818903
   9.6461673  16.0141673  57.5838903   9.1481673  14.7481673  57.7618903
   9.0611673  15.4951673  57.5388903   7.0871673  15.9341673  59.4718903
   7.3011673  16.4611673  60.1338903   7.8541673  15.7601673  59.0928903
   7.2321673  15.9861673  59.5138903   3.3611673   2.6501673  74.3688903
   3.4781673   2.1961673  73.6328903   3.6491673   3.4481673  74.1658903
   3.4211673   2.7011673  74.2298903  14.2141673   3.1741673  61.6728903
  13.8681673   3.8521673  62.0988903  13.5781673   2.5761673  61.6888903
  14.0691673   3.1861673  61.7378903   9.5261673  15.9441673  67.7768903
  10.2701673  16.4001673  67.7668903   9.4051673  15.7301673  66.9398903
   9.6181673  15.9801673  67.6518903   2.5301673  15.4191673  63.2068903
   3.3741673  15.5231673  63.0118903   2.2331673  16.2371673  63.2748903
   2.6111673  15.5551673  63.1878903   6.3371673   4.8161673  61.2938903
   6.6241673   4.5841673  60.5038903   7.0691673   4.8951673  61.7628903
   6.4871673   4.7931673  61.2468903   7.0591673   5.1551673  56.4148903
   7.3401673   5.9431673  56.6638903   6.2831673   5.3201673  56.0518903
   6.9861673   5.2961673  56.3978903  11.1001673  17.1291673  57.8818903
  11.7651673  16.9811673  57.3368903  11.4601673  17.0461673  58.6718903
  11.2521673  17.0951673  57.9178903   8.7801673  13.1291673  71.4808903
   8.7461673  13.5111673  72.2648903   9.6341673  13.0871673  71.3098903
   8.9011673  13.1791673  71.5718903   5.9181673  13.3261673  56.2308903
   5.7371673  13.8711673  56.8878903   6.6841673  13.6161673  55.9298903
   6.0041673  13.4501673  56.2838903   6.6831673   3.5981673  58.5988903
   6.1751673   2.9361673  58.3448903   6.7351673   4.1021673  57.8888903
   6.6161673   3.5751673  58.4568903   7.2321673  16.2931673  68.9788903
   8.0001673  16.2131673  68.5728903   6.6491673  16.1721673  68.3408903
   7.2591673  16.2631673  68.8248903  13.5091673  16.8961673  61.8798903
  13.0541673  17.6131673  62.0808903  12.8951673  16.3251673  61.6378903
  13.3511673  16.9181673  61.8738903   5.2811673   2.9061673  63.0118903
   5.3551673   3.4741673  62.3538903   5.4021673   3.3981673  63.7218903
   5.3091673   3.0631673  63.0198903  10.5061673  12.7411673  61.4238903
  11.2071673  12.2591673  61.6128903   9.8461673  12.1721673  61.4688903
  10.5121673  12.5861673  61.4578903   2.8451673   9.1621673  65.3848903
   3.0171673   8.9521673  66.2138903   2.1901673   8.6281673  65.1688903
   2.7741673   9.0521673  65.4758903   9.0731673   3.0761673  68.8998903
   8.9781673   3.3951673  69.7058903   8.4801673   2.4371673  68.8618903
   8.9711673   3.0281673  69.0138903   3.5951673   9.1001673  67.9748903
   3.6481673   9.9471673  68.1768903   3.3101673   8.7301673  68.7118903
   3.5611673   9.1701673  68.1128903   9.7721673   9.7951673  67.1048903
   9.2581673   9.3831673  67.6758903   9.6461673  10.6391673  67.2858903
   9.6781673   9.8591673  67.2158903  12.7931673   3.2561673  70.0438903
  13.5651673   3.0311673  70.3808903  12.3181673   3.4731673  70.7438903
  12.8371673   3.2551673  70.1968903  13.0251673  10.2341673  57.2318903
  13.1441673   9.9471673  58.0468903  13.8321673  10.2551673  56.9018903
  13.1611673  10.1951673  57.3038903  15.2591673  14.7431673  71.4858903
  14.5771673  15.0531673  71.0388903  14.8901673  14.2851673  72.1308903
  15.1031673  14.7211673  71.5148903  10.9201673   6.7711673  56.8168903
  10.7001673   7.5021673  56.3948903  10.4721673   6.8221673  57.5638903
  10.8211673   6.8861673  56.8648903   2.5291673   9.9731673  60.7978903
   3.2421673  10.4681673  60.8878903   2.7511673   9.4061673  60.1718903
   2.6671673   9.9621673  60.7188903   4.3321673   5.3261673  74.2138903
   3.8481673   5.9031673  74.6558903   4.3041673   5.6211673  73.3928903
   4.2561673   5.4551673  74.1578903  15.4301673   6.0101673  68.8258903
  15.6451673   5.2101673  68.5498903  14.5801673   6.0701673  68.6368903
  15.3361673   5.9011673  68.7568903   7.0521673  13.6761673  63.1248903
   6.5291673  14.3101673  62.8318903   7.3621673  13.3121673  62.3958903
   7.0201673  13.7161673  62.9738903   9.5631673   3.4781673  63.6218903
   9.9071673   3.6301673  64.4088903   9.1101673   2.7401673  63.7348903
   9.5471673   3.3911673  63.7548903   4.0391673   2.6981673  58.0788903
   4.0371673   2.5811673  57.2138903   3.8581673   3.5461673  58.1708903
   4.0121673   2.8061673  57.9648903  13.0931673  15.1251673  69.5758903
  12.4221673  15.6391673  69.7938903  13.1561673  15.2251673  68.7118903
  13.0031673  15.2161673  69.4808903   1.7771673  12.6501673  62.7108903
   1.9031673  13.4931673  62.8978903   2.4451673  12.2511673  63.1068903
   1.8951673  12.7161673  62.7968903  10.8841673   4.8101673  66.1758903
  10.2221673   5.1381673  66.6388903  11.0711673   5.4441673  65.6068903
  10.8141673   4.9521673  66.1598903   5.0891673  15.8741673  67.1718903
   4.8121673  15.2331673  66.6488903   4.8811673  16.6001673  66.7338903
   5.0181673  15.8871673  67.0298903   9.0771673   2.7791673  59.6868903
   9.5671673   3.4961673  59.6098903   8.2871673   3.0401673  59.4238903
   9.0331673   2.9231673  59.6368903  10.3911673  10.6571673  71.5968903
  10.8751673  11.3751673  71.6948903  10.7851673  10.2301673  70.9458903
  10.5211673  10.7001673  71.5148903   4.6871673  13.5021673  72.7738903
   5.0411673  13.3241673  73.5508903   4.2511673  12.7731673  72.5748903
   4.6751673  13.3681673  72.8598903   5.6591673   4.2491673  65.4118903
   6.1391673   4.9481673  65.6198903   6.0321673   3.6021673  65.8628903
   5.7851673   4.2571673  65.5088903   7.8481673   7.4181673  57.6858903
   7.8401673   8.1401673  57.1958903   7.2091673   7.5531673  58.2628903
   7.7531673   7.5451673  57.6988903  12.8201673  11.2881673  61.6668903
  13.1761673  10.9381673  62.3818903  12.8121673  10.6271673  61.0968903
  12.8721673  11.1381673  61.6878903   8.8651673  14.3541673  65.5108903
   8.2621673  14.0581673  64.9538903   9.4101673  14.8061673  65.0018903
   8.8561673  14.3771673  65.3528903   8.8781673  11.2051673  64.9108903
   8.0811673  11.4291673  65.1848903   9.1361673  10.6111673  65.4958903
   8.7981673  11.1501673  65.0378903   2.7701673  16.0171673  59.3588903
   2.6231673  15.2411673  59.7298903   3.4591673  15.8701673  58.8438903
   2.8501673  15.8801673  59.3378903   5.0621673  15.5331673  57.7608903
   5.6841673  15.6961673  58.3508903   5.0981673  16.2241673  57.2288903
   5.1591673  15.6591673  57.7698903  12.1381673   9.2031673  69.7568903
  12.1931673   9.3281673  68.8948903  12.8911673   9.5231673  70.0588903
  12.2571673   9.2681673  69.6738903   8.3291673  14.5521673  74.0338903
   8.4931673  14.8351673  74.8428903   8.5921673  15.2131673  73.5288903
   8.3921673  14.6921673  74.0788903   7.8691673   9.0091673  69.3568903
   7.7141673   9.6191673  69.9608903   8.4031673   8.4511673  69.7628903
   7.9251673   9.0171673  69.5058903   6.2531673   7.4091673  60.0148903
   6.3121673   8.0591673  60.5938903   6.0641673   6.7131673  60.5058903
   6.2341673   7.4021673  60.1728903  11.4791673  11.7381673  65.8838903
  11.0001673  12.0361673  65.2178903  11.1231673  10.9621673  66.0618903
  11.3561673  11.6671673  65.8118903   5.4761673   9.4561673  64.4458903
   4.6291673   9.2621673  64.5268903   5.8001673   9.2911673  65.2388903
   5.3981673   9.4031673  64.5748903   2.2281673  16.1861673  55.3318903
   2.6671673  15.4891673  55.6198903   2.4351673  16.8101673  55.9048903
   2.3241673  16.1751673  55.4588903   2.5541673   4.3201673  63.4968903
   3.4001673   4.1301673  63.5948903   2.1841673   3.5431673  63.3588903
   2.6241673   4.1771673  63.4908903  15.1711673  15.9041673  57.8238903
  15.8651673  15.4371673  57.5758903  14.6321673  15.3061673  58.1608903
  15.1941673  15.7461673  57.8368903  12.4101673   8.6801673  67.0028903
  12.4031673   7.9041673  67.4008903  11.5691673   8.9141673  66.9958903
  12.2851673   8.6001673  67.0608903  13.6661673   8.7511673  64.4398903
  13.3801673   9.1521673  65.1598903  14.5261673   8.6891673  64.5668903
  13.7511673   8.8011673  64.5648903   3.3551673   5.5531673  58.3478903
   3.6271673   6.3791673  58.4148903   2.4921673   5.6281673  58.2518903
   3.2681673   5.6861673  58.3428903  11.3281673   2.6751673  72.9798903
  10.8031673   3.1341673  73.5038903  10.9671673   1.8801673  72.9738903
  11.1971673   2.6251673  73.0558903  14.7971673  14.3841673  64.9688903
  15.0871673  14.6411673  64.1878903  15.4921673  14.4801673  65.4878903
  14.9431673  14.4361673  64.9298903   9.8201673   6.2441673  73.0558903
   9.8931673   6.3481673  73.9188903   9.1861673   6.8021673  72.8348903
   9.7371673   6.3421673  73.1508903  12.0881673   6.5631673  71.4208903
  12.4071673   7.3491673  71.6238903  11.7181673   6.2931673  72.1638903
  12.0811673   6.6391673  71.5608903  11.4021673  12.9871673  56.9508903
  11.7361673  12.1811673  56.9858903  10.6471673  12.9151673  57.3808903
  11.3401673  12.8571673  57.0198903  11.8841673   4.8211673  62.6098903
  11.1391673   4.4981673  62.9278903  11.8861673   5.6471673  62.8898903
  11.7741673   4.8951673  62.6978903  14.7861673   7.1051673  74.1558903
  14.7341673   6.7641673  73.3548903  15.5231673   7.5721673  74.1338903
  14.8871673   7.1241673  74.0338903  14.3241673  10.7811673  70.3618903
  14.9521673  10.2321673  70.1058903  14.2631673  11.3461673  69.6998903
  14.4081673  10.7841673  70.2258903   8.7761673  10.8621673  56.3538903
   9.4601673  10.3481673  56.1848903   8.3591673  10.9081673  55.5888903
   8.8151673  10.7931673  56.2158903   3.4581673  12.0121673  67.6578903
   3.1601673  12.6041673  68.2248903   3.5131673  12.4541673  66.9088903
   3.4221673  12.1651673  67.6308903   5.9741673   8.4351673  67.1488903
   6.4501673   8.8091673  67.7768903   5.1511673   8.5691673  67.4078903
   5.9231673   8.5101673  67.2798903   2.6841673   4.0381673  69.8898903
   2.8451673   3.2941673  70.3168903   2.6391673   3.7891673  69.0548903
   2.7011673   3.8911673  69.8298903   5.2381673  15.8281673  62.3768903
   5.7841673  16.5071673  62.4308903   4.8881673  15.9101673  61.5818903
   5.2671673  15.9411673  62.2668903   3.4211673  14.0561673  65.7658903
   2.7971673  14.6381673  65.5838903   3.6691673  13.7701673  64.9798903
   3.3651673  14.1001673  65.6228903   7.7301673  10.6901673  72.7548903
   8.4871673  10.9761673  72.4288903   7.1831673  10.7421673  72.0768903
   7.7611673  10.7401673  72.6058903  11.6391673  13.2401673  71.2588903
  11.9851673  13.5101673  72.0128903  11.9331673  13.8221673  70.6788903
  11.7341673  13.3661673  71.2848903  13.5021673   5.3861673  56.5978903
  13.8801673   6.0631673  56.1978903  12.6601673   5.6101673  56.6288903
  13.4331673   5.5191673  56.5428903   5.0151673   8.8321673  55.6808903
   4.2101673   8.6551673  55.3958903   4.9821673   9.6831673  55.8728903
   4.8911673   8.9311673  55.6678903   8.9611673   4.0011673  71.4228903
   8.3131673   4.4711673  71.7708903   9.5261673   3.9121673  72.0818903
   8.9491673   4.0571673  71.5718903   8.6491673   5.5381673  67.7208903
   8.9511673   5.9581673  68.4238903   8.6851673   4.6981673  67.9528903
   8.6991673   5.4761673  67.8588903   6.0741673  15.7051673  71.6458903
   6.5521673  15.1051673  71.2298903   5.7231673  15.2621673  72.3108903
   6.0931673  15.5511673  71.6828903  11.1971673   4.9851673  59.9728903
  11.4041673   4.7841673  60.7968903  11.9531673   5.2531673  59.6308903
  11.3391673   4.9951673  60.0438903  12.6621673   9.0121673  59.8268903
  13.1381673   8.2831673  59.7788903  11.8411673   8.7261673  59.7508903
  12.6111673   8.8621673  59.8078903   6.1331673  10.9241673  70.6658903
   5.3381673  10.8601673  71.0168903   6.2041673  11.7711673  70.4708903
   6.0261673  11.0391673  70.6888903   1.9631673  17.1311673  65.9828903
   1.9741673  17.1901673  66.8528903   1.5381673  16.3841673  65.8328903
   1.9021673  17.0291673  66.0888903   8.8781673  10.1791673  62.1818903
   8.9541673  10.5201673  62.9808903   9.0471673   9.3321673  62.3028903
   8.9141673  10.1041673  62.3178903   6.4001673   9.4531673  61.7468903
   6.1021673   9.1381673  62.5038903   7.0951673   9.9261673  61.9818903
   6.4591673   9.4761673  61.8938903   6.6221673  13.5711673  69.7738903
   7.3091673  13.4571673  70.2988903   6.7561673  14.3621673  69.4298903
   6.7431673  13.6711673  69.8008903  14.7981673   6.1801673  71.5848903
  13.9431673   6.0581673  71.7108903  14.9511673   5.7851673  70.8218903
  14.6941673   6.1031673  71.4908903   9.3111673   6.8451673  70.1608903
   9.0561673   6.1261673  70.5828903  10.1321673   6.9611673  70.4308903
   9.3951673   6.7561673  70.2628903   7.2451673   8.0351673  73.3478903
   7.5681673   8.7211673  72.9158903   6.5411673   8.3581673  73.7498903
   7.1881673   8.1841673  73.3428903  10.3291673  16.4091673  64.2768903
   9.8781673  17.0521673  64.6558903  11.0371673  16.3301673  64.7818903
  10.3671673  16.4921673  64.4078903   7.0301673  11.4991673  67.2068903
   6.3361673  11.9011673  67.5498903   7.7071673  11.9321673  67.5458903
   7.0271673  11.6221673  67.3078903  12.4071673  14.0921673  73.7868903
  13.1831673  13.7021673  73.8698903  11.9381673  13.7561673  74.4418903
  12.4521673  13.9851673  73.8958903  13.4321673   6.1251673  59.2688903
  13.5351673   6.0671673  58.4048903  14.1731673   5.7931673  59.5868903
  13.5571673   6.0681673  59.1878903   7.3521673  13.0901673  60.3758903
   7.1471673  13.9231673  60.2168903   6.5771673  12.7081673  60.4978903
   7.2071673  13.1571673  60.3708903  12.5341673   6.2711673  68.6248903
  12.5321673   5.4081673  68.7488903  12.6011673   6.5951673  69.4318903
  12.5441673   6.1911673  68.7618903   2.7141673  13.3521673  56.7848903
   3.1551673  13.4321673  57.5328903   1.9091673  13.1361673  57.0428903
   2.6601673  13.3321673  56.9338903  11.0051673   1.7771673  66.0608903
  11.8601673   1.8761673  66.2058903  10.6361673   2.3301673  66.6258903
  11.0771673   1.8741673  66.1658903   2.0331673   8.0031673  70.4378903
   1.6371673   8.7771673  70.5128903   1.6271673   7.6301673  69.7618903
   1.9151673   8.0621673  70.3488903  11.3091673   7.0571673  64.5518903
  11.9751673   7.5981673  64.7118903  10.9641673   7.3681673  63.8128903
  11.3561673   7.1831673  64.4668903  11.6221673  15.1231673  60.3588903
  11.4481673  14.4691673  60.9088903  12.3351673  14.8521673  59.9358903
  11.7021673  14.9861673  60.3778903   2.8621673  10.6671673  56.1288903
   2.0441673  10.3991673  56.2688903   2.8341673  11.5191673  56.3138903
   2.7371673  10.7541673  56.1768903   9.2971673  12.5761673  68.0498903
   9.5031673  12.8771673  68.8418903   9.2361673  13.2981673  67.5648903
   9.3181673  12.7271673  68.0948903   8.8311673  16.7901673  72.2958903
   8.0781673  16.7721673  71.8548903   8.9991673  17.6421673  72.3798903
   8.7451673  16.9131673  72.2428903   4.0681673   6.0571673  71.4658903
   3.7461673   5.4811673  70.8958903   3.7091673   6.8121673  71.2198903
   3.9681673   6.0831673  71.3458903  14.1091673  11.2151673  67.5078903
  14.0771673  10.3531673  67.3728903  13.4161673  11.5171673  67.0738903
  14.0021673  11.1321673  67.4238903   2.5031673  16.4131673  71.7138903
   2.5441673  16.5391673  72.5768903   3.1541673  15.8531673  71.5578903
   2.6051673  16.3491673  71.8188903  12.2141673  14.4751673  66.3048903
  12.7411673  14.3921673  65.6138903  11.8231673  13.6971673  66.3588903
  12.2341673  14.3481673  66.2108903   8.0871673   5.7271673  63.0058903
   8.6381673   5.1201673  63.3058903   7.6621673   5.9901673  63.7208903
   8.1061673   5.6761673  63.1548903  10.0571673   7.5581673  59.5678903
  10.1251673   6.7081673  59.7488903   9.2341673   7.6441673  59.2898903
   9.9451673   7.4451673  59.5538903   3.9761673   8.4491673  58.5058903
   4.0761673   8.5881673  57.6508903   4.7941673   8.3891673  58.8018903
   4.1111673   8.4601673  58.4228903  13.1361673  16.5131673  55.9858903
  13.7731673  16.3791673  56.5668903  12.7951673  15.7191673  55.8688903
  13.1801673  16.3761673  56.0538903  13.3311673   8.9311673  72.7188903
  13.9651673   8.7611673  73.2928903  13.7481673   9.3341673  72.0668903
  13.4861673   8.9661673  72.7078903   9.2111673  12.7781673  58.3078903
   8.9601673  12.6501673  59.1338903   8.8941673  12.0831673  57.8868903
   9.1271673  12.6571673  58.3678903  13.9561673   3.4951673  73.4568903
  13.7601673   4.1391673  74.0118903  13.2341673   3.0051673  73.4488903
  13.8211673   3.5181673  73.5378903  13.8551673   4.4361673  66.4278903
  13.0221673   4.6861673  66.3558903  13.7991673   3.5961673  66.6568903
  13.7241673   4.3491673  66.4508903  10.7421673   9.0421673  74.0738903
  11.6131673   9.0061673  74.0378903  10.5231673   9.4621673  73.3418903
  10.8391673   9.0981673  73.9608903   6.0971673  10.9861673  57.7378903
   6.8141673  10.6391673  57.3818903   6.0631673  11.7861673  57.3898903
   6.1981673  11.0531673  57.6338903   7.3151673   6.5431673  46.6476493
   6.7911673   7.1391673  47.0106493   7.7121673   6.1751673  47.3316493
   7.2961673   6.5771673  46.8026493  13.4591673  13.9841673  39.6186493
  14.1601673  13.4651673  39.6146493  12.8721673  13.5391673  39.1496493
  13.4761673  13.8411673  39.5486493   9.9861673   7.6101673  43.3236493
  10.0661673   7.6141673  42.4546493   9.4021673   6.9781673  43.4726493
   9.9111673   7.5171673  43.2176493   3.6981673  10.9431673  53.4256493
   3.4621673  10.9401673  54.2656493   2.9501673  10.7951673  53.0016493
   3.5521673  10.9201673  53.4866493   3.0781673   3.5491673  47.9076493
   3.7561673   3.5671673  47.3586493   3.0331673   2.7131673  48.1526493
   3.1711673   3.4281673  47.8626493   3.6801673  14.1351673  50.6886493
   3.8181673  14.8951673  50.2816493   4.4711673  13.7701673  50.7156493
   3.8171673  14.1941673  50.6326493   4.7751673  12.0201673  45.1936493
   5.1231673  11.2211673  45.2236493   5.4401673  12.5241673  44.9386493
   4.9251673  11.9761673  45.1606493   4.8321673  11.4691673  41.4046493
   5.1631673  10.8251673  41.8906493   5.0721673  11.2581673  40.5936493
   4.9161673  11.3431673  41.3566493   6.8001673   5.6001673  52.7436493
   5.9521673   5.5011673  52.5656493   6.8291673   6.3451673  53.1976493
   6.6791673   5.6961673  52.7846493   8.8201673   3.2011673  36.3716493
   8.3701673   3.8821673  36.6786493   8.9341673   2.6971673  37.0746493
   8.7711673   3.2271673  36.5206493   2.7761673  13.2541673  40.9536493
   2.1971673  12.9791673  41.5456493   3.4001673  12.6451673  40.9786493
   2.7831673  13.1241673  41.0446493   8.9191673  15.5421673  38.4756493
   9.6461673  16.0141673  38.5776493   9.1481673  14.7481673  38.7556493
   9.0611673  15.4951673  38.5326493   7.0871673  15.9341673  40.4656493
   7.3011673  16.4611673  41.1276493   7.8541673  15.7601673  40.0866493
   7.2321673  15.9861673  40.5076493   3.3611673   2.6501673  55.3626493
   3.4781673   2.1961673  54.6266493   3.6491673   3.4481673  55.1596493
   3.4211673   2.7011673  55.2236493  14.2141673   3.1741673  42.6666493
  13.8681673   3.8521673  43.0926493  13.5781673   2.5761673  42.6826493
  14.0691673   3.1861673  42.7316493   9.5261673  15.9441673  48.7706493
  10.2701673  16.4001673  48.7606493   9.4051673  15.7301673  47.9336493
   9.6181673  15.9801673  48.6456493   2.5301673  15.4191673  44.2006493
   3.3741673  15.5231673  44.0056493   2.2331673  16.2371673  44.2686493
   2.6111673  15.5551673  44.1816493   6.3371673   4.8161673  42.2876493
   6.6241673   4.5841673  41.4976493   7.0691673   4.8951673  42.7566493
   6.4871673   4.7931673  42.2406493   7.0591673   5.1551673  37.4086493
   7.3401673   5.9431673  37.6576493   6.2831673   5.3201673  37.0456493
   6.9861673   5.2961673  37.3916493  11.1001673  17.1291673  38.8756493
  11.7651673  16.9811673  38.3306493  11.4601673  17.0461673  39.6656493
  11.2521673  17.0951673  38.9116493   8.7801673  13.1291673  52.4746493
   8.7461673  13.5111673  53.2586493   9.6341673  13.0871673  52.3036493
   8.9011673  13.1791673  52.5656493   5.9181673  13.3261673  37.2246493
   5.7371673  13.8711673  37.8816493   6.6841673  13.6161673  36.9236493
   6.0041673  13.4501673  37.2776493   6.6831673   3.5981673  39.5926493
   6.1751673   2.9361673  39.3386493   6.7351673   4.1021673  38.8826493
   6.6161673   3.5751673  39.4506493   7.2321673  16.2931673  49.9726493
   8.0001673  16.2131673  49.5666493   6.6491673  16.1721673  49.3346493
   7.2591673  16.2631673  49.8186493  13.5091673  16.8961673  42.8736493
  13.0541673  17.6131673  43.0746493  12.8951673  16.3251673  42.6316493
  13.3511673  16.9181673  42.8676493   5.2811673   2.9061673  44.0056493
   5.3551673   3.4741673  43.3476493   5.4021673   3.3981673  44.7156493
   5.3091673   3.0631673  44.0136493  10.5061673  12.7411673  42.4176493
  11.2071673  12.2591673  42.6066493   9.8461673  12.1721673  42.4626493
  10.5121673  12.5861673  42.4516493   2.8451673   9.1621673  46.3786493
   3.0171673   8.9521673  47.2076493   2.1901673   8.6281673  46.1626493
   2.7741673   9.0521673  46.4696493   9.0731673   3.0761673  49.8936493
   8.9781673   3.3951673  50.6996493   8.4801673   2.4371673  49.8556493
   8.9711673   3.0281673  50.0076493   3.5951673   9.1001673  48.9686493
   3.6481673   9.9471673  49.1706493   3.3101673   8.7301673  49.7056493
   3.5611673   9.1701673  49.1066493   9.7721673   9.7951673  48.0986493
   9.2581673   9.3831673  48.6696493   9.6461673  10.6391673  48.2796493
   9.6781673   9.8591673  48.2096493  12.7931673   3.2561673  51.0376493
  13.5651673   3.0311673  51.3746493  12.3181673   3.4731673  51.7376493
  12.8371673   3.2551673  51.1906493  13.0251673  10.2341673  38.2256493
  13.1441673   9.9471673  39.0406493  13.8321673  10.2551673  37.8956493
  13.1611673  10.1951673  38.2976493  15.2591673  14.7431673  52.4796493
  14.5771673  15.0531673  52.0326493  14.8901673  14.2851673  53.1246493
  15.1031673  14.7211673  52.5086493  10.9201673   6.7711673  37.8106493
  10.7001673   7.5021673  37.3886493  10.4721673   6.8221673  38.5576493
  10.8211673   6.8861673  37.8586493   2.5291673   9.9731673  41.7916493
   3.2421673  10.4681673  41.8816493   2.7511673   9.4061673  41.1656493
   2.6671673   9.9621673  41.7126493   4.3321673   5.3261673  55.2076493
   3.8481673   5.9031673  55.6496493   4.3041673   5.6211673  54.3866493
   4.2561673   5.4551673  55.1516493  15.4301673   6.0101673  49.8196493
  15.6451673   5.2101673  49.5436493  14.5801673   6.0701673  49.6306493
  15.3361673   5.9011673  49.7506493   7.0521673  13.6761673  44.1186493
   6.5291673  14.3101673  43.8256493   7.3621673  13.3121673  43.3896493
   7.0201673  13.7161673  43.9676493   9.5631673   3.4781673  44.6156493
   9.9071673   3.6301673  45.4026493   9.1101673   2.7401673  44.7286493
   9.5471673   3.3911673  44.7486493   4.0391673   2.6981673  39.0726493
   4.0371673   2.5811673  38.2076493   3.8581673   3.5461673  39.1646493
   4.0121673   2.8061673  38.9586493  13.0931673  15.1251673  50.5696493
  12.4221673  15.6391673  50.7876493  13.1561673  15.2251673  49.7056493
  13.0031673  15.2161673  50.4746493   1.7771673  12.6501673  43.7046493
   1.9031673  13.4931673  43.8916493   2.4451673  12.2511673  44.1006493
   1.8951673  12.7161673  43.7906493  10.8841673   4.8101673  47.1696493
  10.2221673   5.1381673  47.6326493  11.0711673   5.4441673  46.6006493
  10.8141673   4.9521673  47.1536493   5.0891673  15.8741673  48.1656493
   4.8121673  15.2331673  47.6426493   4.8811673  16.6001673  47.7276493
   5.0181673  15.8871673  48.0236493   9.0771673   2.7791673  40.6806493
   9.5671673   3.4961673  40.6036493   8.2871673   3.0401673  40.4176493
   9.0331673   2.9231673  40.6306493  10.3911673  10.6571673  52.5906493
  10.8751673  11.3751673  52.6886493  10.7851673  10.2301673  51.9396493
  10.5211673  10.7001673  52.5086493   4.6871673  13.5021673  53.7676493
   5.0411673  13.3241673  54.5446493   4.2511673  12.7731673  53.5686493
   4.6751673  13.3681673  53.8536493   5.6591673   4.2491673  46.4056493
   6.1391673   4.9481673  46.6136493   6.0321673   3.6021673  46.8566493
   5.7851673   4.2571673  46.5026493   7.8481673   7.4181673  38.6796493
   7.8401673   8.1401673  38.1896493   7.2091673   7.5531673  39.2566493
   7.7531673   7.5451673  38.6926493  12.8201673  11.2881673  42.6606493
  13.1761673  10.9381673  43.3756493  12.8121673  10.6271673  42.0906493
  12.8721673  11.1381673  42.6816493   8.8651673  14.3541673  46.5046493
   8.2621673  14.0581673  45.9476493   9.4101673  14.8061673  45.9956493
   8.8561673  14.3771673  46.3466493   8.8781673  11.2051673  45.9046493
   8.0811673  11.4291673  46.1786493   9.1361673  10.6111673  46.4896493
   8.7981673  11.1501673  46.0316493   2.7701673  16.0171673  40.3526493
   2.6231673  15.2411673  40.7236493   3.4591673  15.8701673  39.8376493
   2.8501673  15.8801673  40.3316493   5.0621673  15.5331673  38.7546493
   5.6841673  15.6961673  39.3446493   5.0981673  16.2241673  38.2226493
   5.1591673  15.6591673  38.7636493  12.1381673   9.2031673  50.7506493
  12.1931673   9.3281673  49.8886493  12.8911673   9.5231673  51.0526493
  12.2571673   9.2681673  50.6676493   8.3291673  14.5521673  55.0276493
   8.4931673  14.8351673  55.8366493   8.5921673  15.2131673  54.5226493
   8.3921673  14.6921673  55.0726493   7.8691673   9.0091673  50.3506493
   7.7141673   9.6191673  50.9546493   8.4031673   8.4511673  50.7566493
   7.9251673   9.0171673  50.4996493   6.2531673   7.4091673  41.0086493
   6.3121673   8.0591673  41.5876493   6.0641673   6.7131673  41.4996493
   6.2341673   7.4021673  41.1666493  11.4791673  11.7381673  46.8776493
  11.0001673  12.0361673  46.2116493  11.1231673  10.9621673  47.0556493
  11.3561673  11.6671673  46.8056493   5.4761673   9.4561673  45.4396493
   4.6291673   9.2621673  45.5206493   5.8001673   9.2911673  46.2326493
   5.3981673   9.4031673  45.5686493   2.2281673  16.1861673  36.3256493
   2.6671673  15.4891673  36.6136493   2.4351673  16.8101673  36.8986493
   2.3241673  16.1751673  36.4526493   2.5541673   4.3201673  44.4906493
   3.4001673   4.1301673  44.5886493   2.1841673   3.5431673  44.3526493
   2.6241673   4.1771673  44.4846493  15.1711673  15.9041673  38.8176493
  15.8651673  15.4371673  38.5696493  14.6321673  15.3061673  39.1546493
  15.1941673  15.7461673  38.8306493  12.4101673   8.6801673  47.9966493
  12.4031673   7.9041673  48.3946493  11.5691673   8.9141673  47.9896493
  12.2851673   8.6001673  48.0546493  13.6661673   8.7511673  45.4336493
  13.3801673   9.1521673  46.1536493  14.5261673   8.6891673  45.5606493
  13.7511673   8.8011673  45.5586493   3.3551673   5.5531673  39.3416493
   3.6271673   6.3791673  39.4086493   2.4921673   5.6281673  39.2456493
   3.2681673   5.6861673  39.3366493  11.3281673   2.6751673  53.9736493
  10.8031673   3.1341673  54.4976493  10.9671673   1.8801673  53.9676493
  11.1971673   2.6251673  54.0496493  14.7971673  14.3841673  45.9626493
  15.0871673  14.6411673  45.1816493  15.4921673  14.4801673  46.4816493
  14.9431673  14.4361673  45.9236493   9.8201673   6.2441673  54.0496493
   9.8931673   6.3481673  54.9126493   9.1861673   6.8021673  53.8286493
   9.7371673   6.3421673  54.1446493  12.0881673   6.5631673  52.4146493
  12.4071673   7.3491673  52.6176493  11.7181673   6.2931673  53.1576493
  12.0811673   6.6391673  52.5546493  11.4021673  12.9871673  37.9446493
  11.7361673  12.1811673  37.9796493  10.6471673  12.9151673  38.3746493
  11.3401673  12.8571673  38.0136493  11.8841673   4.8211673  43.6036493
  11.1391673   4.4981673  43.9216493  11.8861673   5.6471673  43.8836493
  11.7741673   4.8951673  43.6916493  14.7861673   7.1051673  55.1496493
  14.7341673   6.7641673  54.3486493  15.5231673   7.5721673  55.1276493
  14.8871673   7.1241673  55.0276493  14.3241673  10.7811673  51.3556493
  14.9521673  10.2321673  51.0996493  14.2631673  11.3461673  50.6936493
  14.4081673  10.7841673  51.2196493   8.7761673  10.8621673  37.3476493
   9.4601673  10.3481673  37.1786493   8.3591673  10.9081673  36.5826493
   8.8151673  10.7931673  37.2096493   3.4581673  12.0121673  48.6516493
   3.1601673  12.6041673  49.2186493   3.5131673  12.4541673  47.9026493
   3.4221673  12.1651673  48.6246493   5.9741673   8.4351673  48.1426493
   6.4501673   8.8091673  48.7706493   5.1511673   8.5691673  48.4016493
   5.9231673   8.5101673  48.2736493   2.6841673   4.0381673  50.8836493
   2.8451673   3.2941673  51.3106493   2.6391673   3.7891673  50.0486493
   2.7011673   3.8911673  50.8236493   5.2381673  15.8281673  43.3706493
   5.7841673  16.5071673  43.4246493   4.8881673  15.9101673  42.5756493
   5.2671673  15.9411673  43.2606493   3.4211673  14.0561673  46.7596493
   2.7971673  14.6381673  46.5776493   3.6691673  13.7701673  45.9736493
   3.3651673  14.1001673  46.6166493   7.7301673  10.6901673  53.7486493
   8.4871673  10.9761673  53.4226493   7.1831673  10.7421673  53.0706493
   7.7611673  10.7401673  53.5996493  11.6391673  13.2401673  52.2526493
  11.9851673  13.5101673  53.0066493  11.9331673  13.8221673  51.6726493
  11.7341673  13.3661673  52.2786493  13.5021673   5.3861673  37.5916493
  13.8801673   6.0631673  37.1916493  12.6601673   5.6101673  37.6226493
  13.4331673   5.5191673  37.5366493   5.0151673   8.8321673  36.6746493
   4.2101673   8.6551673  36.3896493   4.9821673   9.6831673  36.8666493
   4.8911673   8.9311673  36.6616493   8.9611673   4.0011673  52.4166493
   8.3131673   4.4711673  52.7646493   9.5261673   3.9121673  53.0756493
   8.9491673   4.0571673  52.5656493   8.6491673   5.5381673  48.7146493
   8.9511673   5.9581673  49.4176493   8.6851673   4.6981673  48.9466493
   8.6991673   5.4761673  48.8526493   6.0741673  15.7051673  52.6396493
   6.5521673  15.1051673  52.2236493   5.7231673  15.2621673  53.3046493
   6.0931673  15.5511673  52.6766493  11.1971673   4.9851673  40.9666493
  11.4041673   4.7841673  41.7906493  11.9531673   5.2531673  40.6246493
  11.3391673   4.9951673  41.0376493  12.6621673   9.0121673  40.8206493
  13.1381673   8.2831673  40.7726493  11.8411673   8.7261673  40.7446493
  12.6111673   8.8621673  40.8016493   6.1331673  10.9241673  51.6596493
   5.3381673  10.8601673  52.0106493   6.2041673  11.7711673  51.4646493
   6.0261673  11.0391673  51.6826493   1.9631673  17.1311673  46.9766493
   1.9741673  17.1901673  47.8466493   1.5381673  16.3841673  46.8266493
   1.9021673  17.0291673  47.0826493   8.8781673  10.1791673  43.1756493
   8.9541673  10.5201673  43.9746493   9.0471673   9.3321673  43.2966493
   8.9141673  10.1041673  43.3116493   6.4001673   9.4531673  42.7406493
   6.1021673   9.1381673  43.4976493   7.0951673   9.9261673  42.9756493
   6.4591673   9.4761673  42.8876493   6.6221673  13.5711673  50.7676493
   7.3091673  13.4571673  51.2926493   6.7561673  14.3621673  50.4236493
   6.7431673  13.6711673  50.7946493  14.7981673   6.1801673  52.5786493
  13.9431673   6.0581673  52.7046493  14.9511673   5.7851673  51.8156493
  14.6941673   6.1031673  52.4846493   9.3111673   6.8451673  51.1546493
   9.0561673   6.1261673  51.5766493  10.1321673   6.9611673  51.4246493
   9.3951673   6.7561673  51.2566493   7.2451673   8.0351673  54.3416493
   7.5681673   8.7211673  53.9096493   6.5411673   8.3581673  54.7436493
   7.1881673   8.1841673  54.3366493  10.3291673  16.4091673  45.2706493
   9.8781673  17.0521673  45.6496493  11.0371673  16.3301673  45.7756493
  10.3671673  16.4921673  45.4016493   7.0301673  11.4991673  48.2006493
   6.3361673  11.9011673  48.5436493   7.7071673  11.9321673  48.5396493
   7.0271673  11.6221673  48.3016493  12.4071673  14.0921673  54.7806493
  13.1831673  13.7021673  54.8636493  11.9381673  13.7561673  55.4356493
  12.4521673  13.9851673  54.8896493  13.4321673   6.1251673  40.2626493
  13.5351673   6.0671673  39.3986493  14.1731673   5.7931673  40.5806493
  13.5571673   6.0681673  40.1816493   7.3521673  13.0901673  41.3696493
   7.1471673  13.9231673  41.2106493   6.5771673  12.7081673  41.4916493
   7.2071673  13.1571673  41.3646493  12.5341673   6.2711673  49.6186493
  12.5321673   5.4081673  49.7426493  12.6011673   6.5951673  50.4256493
  12.5441673   6.1911673  49.7556493   2.7141673  13.3521673  37.7786493
   3.1551673  13.4321673  38.5266493   1.9091673  13.1361673  38.0366493
   2.6601673  13.3321673  37.9276493  11.0051673   1.7771673  47.0546493
  11.8601673   1.8761673  47.1996493  10.6361673   2.3301673  47.6196493
  11.0771673   1.8741673  47.1596493   2.0331673   8.0031673  51.4316493
   1.6371673   8.7771673  51.5066493   1.6271673   7.6301673  50.7556493
   1.9151673   8.0621673  51.3426493  11.3091673   7.0571673  45.5456493
  11.9751673   7.5981673  45.7056493  10.9641673   7.3681673  44.8066493
  11.3561673   7.1831673  45.4606493  11.6221673  15.1231673  41.3526493
  11.4481673  14.4691673  41.9026493  12.3351673  14.8521673  40.9296493
  11.7021673  14.9861673  41.3716493   2.8621673  10.6671673  37.1226493
   2.0441673  10.3991673  37.2626493   2.8341673  11.5191673  37.3076493
   2.7371673  10.7541673  37.1706493   9.2971673  12.5761673  49.0436493
   9.5031673  12.8771673  49.8356493   9.2361673  13.2981673  48.5586493
   9.3181673  12.7271673  49.0886493   8.8311673  16.7901673  53.2896493
   8.0781673  16.7721673  52.8486493   8.9991673  17.6421673  53.3736493
   8.7451673  16.9131673  53.2366493   4.0681673   6.0571673  52.4596493
   3.7461673   5.4811673  51.8896493   3.7091673   6.8121673  52.2136493
   3.9681673   6.0831673  52.3396493  14.1091673  11.2151673  48.5016493
  14.0771673  10.3531673  48.3666493  13.4161673  11.5171673  48.0676493
  14.0021673  11.1321673  48.4176493   2.5031673  16.4131673  52.7076493
   2.5441673  16.5391673  53.5706493   3.1541673  15.8531673  52.5516493
   2.6051673  16.3491673  52.8126493  12.2141673  14.4751673  47.2986493
  12.7411673  14.3921673  46.6076493  11.8231673  13.6971673  47.3526493
  12.2341673  14.3481673  47.2046493   8.0871673   5.7271673  43.9996493
   8.6381673   5.1201673  44.2996493   7.6621673   5.9901673  44.7146493
   8.1061673   5.6761673  44.1486493  10.0571673   7.5581673  40.5616493
  10.1251673   6.7081673  40.7426493   9.2341673   7.6441673  40.2836493
   9.9451673   7.4451673  40.5476493   3.9761673   8.4491673  39.4996493
   4.0761673   8.5881673  38.6446493   4.7941673   8.3891673  39.7956493
   4.1111673   8.4601673  39.4166493  13.1361673  16.5131673  36.9796493
  13.7731673  16.3791673  37.5606493  12.7951673  15.7191673  36.8626493
  13.1801673  16.3761673  37.0476493  13.3311673   8.9311673  53.7126493
  13.9651673   8.7611673  54.2866493  13.7481673   9.3341673  53.0606493
  13.4861673   8.9661673  53.7016493   9.2111673  12.7781673  39.3016493
   8.9601673  12.6501673  40.1276493   8.8941673  12.0831673  38.8806493
   9.1271673  12.6571673  39.3616493  13.9561673   3.4951673  54.4506493
  13.7601673   4.1391673  55.0056493  13.2341673   3.0051673  54.4426493
  13.8211673   3.5181673  54.5316493  13.8551673   4.4361673  47.4216493
  13.0221673   4.6861673  47.3496493  13.7991673   3.5961673  47.6506493
  13.7241673   4.3491673  47.4446493  10.7421673   9.0421673  55.0676493
  11.6131673   9.0061673  55.0316493  10.5231673   9.4621673  54.3356493
  10.8391673   9.0981673  54.9546493   6.0971673  10.9861673  38.7316493
   6.8141673  10.6391673  38.3756493   6.0631673  11.7861673  38.3836493
   6.1981673  11.0531673  38.6276493   7.3151673   6.5431673  27.6414083
   6.7911673   7.1391673  28.0044083   7.7121673   6.1751673  28.3254083
   7.2961673   6.5771673  27.7964083  13.4591673  13.9841673  20.6124083
  14.1601673  13.4651673  20.6084083  12.8721673  13.5391673  20.1434083
  13.4761673  13.8411673  20.5424083   9.9861673   7.6101673  24.3174083
  10.0661673   7.6141673  23.4484083   9.4021673   6.9781673  24.4664083
   9.9111673   7.5171673  24.2114083   3.6981673  10.9431673  34.4194083
   3.4621673  10.9401673  35.2594083   2.9501673  10.7951673  33.9954083
   3.5521673  10.9201673  34.4804083   3.0781673   3.5491673  28.9014083
   3.7561673   3.5671673  28.3524083   3.0331673   2.7131673  29.1464083
   3.1711673   3.4281673  28.8564083   3.6801673  14.1351673  31.6824083
   3.8181673  14.8951673  31.2754083   4.4711673  13.7701673  31.7094083
   3.8171673  14.1941673  31.6264083   4.7751673  12.0201673  26.1874083
   5.1231673  11.2211673  26.2174083   5.4401673  12.5241673  25.9324083
   4.9251673  11.9761673  26.1544083   4.8321673  11.4691673  22.3984083
   5.1631673  10.8251673  22.8844083   5.0721673  11.2581673  21.5874083
   4.9161673  11.3431673  22.3504083   6.8001673   5.6001673  33.7374083
   5.9521673   5.5011673  33.5594083   6.8291673   6.3451673  34.1914083
   6.6791673   5.6961673  33.7784083   8.8201673   3.2011673  17.3654083
   8.3701673   3.8821673  17.6724083   8.9341673   2.6971673  18.0684083
   8.7711673   3.2271673  17.5144083   2.7761673  13.2541673  21.9474083
   2.1971673  12.9791673  22.5394083   3.4001673  12.6451673  21.9724083
   2.7831673  13.1241673  22.0384083   8.9191673  15.5421673  19.4694083
   9.6461673  16.0141673  19.5714083   9.1481673  14.7481673  19.7494083
   9.0611673  15.4951673  19.5264083   7.0871673  15.9341673  21.4594083
   7.3011673  16.4611673  22.1214083   7.8541673  15.7601673  21.0804083
   7.2321673  15.9861673  21.5014083   3.3611673   2.6501673  36.3564083
   3.4781673   2.1961673  35.6204083   3.6491673   3.4481673  36.1534083
   3.4211673   2.7011673  36.2174083  14.2141673   3.1741673  23.6604083
  13.8681673   3.8521673  24.0864083  13.5781673   2.5761673  23.6764083
  14.0691673   3.1861673  23.7254083   9.5261673  15.9441673  29.7644083
  10.2701673  16.4001673  29.7544083   9.4051673  15.7301673  28.9274083
   9.6181673  15.9801673  29.6394083   2.5301673  15.4191673  25.1944083
   3.3741673  15.5231673  24.9994083   2.2331673  16.2371673  25.2624083
   2.6111673  15.5551673  25.1754083   6.3371673   4.8161673  23.2814083
   6.6241673   4.5841673  22.4914083   7.0691673   4.8951673  23.7504083
   6.4871673   4.7931673  23.2344083   7.0591673   5.1551673  18.4024083
   7.3401673   5.9431673  18.6514083   6.2831673   5.3201673  18.0394083
   6.9861673   5.2961673  18.3854083  11.1001673  17.1291673  19.8694083
  11.7651673  16.9811673  19.3244083  11.4601673  17.0461673  20.6594083
  11.2521673  17.0951673  19.9054083   8.7801673  13.1291673  33.4684083
   8.7461673  13.5111673  34.2524083   9.6341673  13.0871673  33.2974083
   8.9011673  13.1791673  33.5594083   5.9181673  13.3261673  18.2184083
   5.7371673  13.8711673  18.8754083   6.6841673  13.6161673  17.9174083
   6.0041673  13.4501673  18.2714083   6.6831673   3.5981673  20.5864083
   6.1751673   2.9361673  20.3324083   6.7351673   4.1021673  19.8764083
   6.6161673   3.5751673  20.4444083   7.2321673  16.2931673  30.9664083
   8.0001673  16.2131673  30.5604083   6.6491673  16.1721673  30.3284083
   7.2591673  16.2631673  30.8124083  13.5091673  16.8961673  23.8674083
  13.0541673  17.6131673  24.0684083  12.8951673  16.3251673  23.6254083
  13.3511673  16.9181673  23.8614083   5.2811673   2.9061673  24.9994083
   5.3551673   3.4741673  24.3414083   5.4021673   3.3981673  25.7094083
   5.3091673   3.0631673  25.0074083  10.5061673  12.7411673  23.4114083
  11.2071673  12.2591673  23.6004083   9.8461673  12.1721673  23.4564083
  10.5121673  12.5861673  23.4454083   2.8451673   9.1621673  27.3724083
   3.0171673   8.9521673  28.2014083   2.1901673   8.6281673  27.1564083
   2.7741673   9.0521673  27.4634083   9.0731673   3.0761673  30.8874083
   8.9781673   3.3951673  31.6934083   8.4801673   2.4371673  30.8494083
   8.9711673   3.0281673  31.0014083   3.5951673   9.1001673  29.9624083
   3.6481673   9.9471673  30.1644083   3.3101673   8.7301673  30.6994083
   3.5611673   9.1701673  30.1004083   9.7721673   9.7951673  29.0924083
   9.2581673   9.3831673  29.6634083   9.6461673  10.6391673  29.2734083
   9.6781673   9.8591673  29.2034083  12.7931673   3.2561673  32.0314083
  13.5651673   3.0311673  32.3684083  12.3181673   3.4731673  32.7314083
  12.8371673   3.2551673  32.1844083  13.0251673  10.2341673  19.2194083
  13.1441673   9.9471673  20.0344083  13.8321673  10.2551673  18.8894083
  13.1611673  10.1951673  19.2914083  15.2591673  14.7431673  33.4734083
  14.5771673  15.0531673  33.0264083  14.8901673  14.2851673  34.1184083
  15.1031673  14.7211673  33.5024083  10.9201673   6.7711673  18.8044083
  10.7001673   7.5021673  18.3824083  10.4721673   6.8221673  19.5514083
  10.8211673   6.8861673  18.8524083   2.5291673   9.9731673  22.7854083
   3.2421673  10.4681673  22.8754083   2.7511673   9.4061673  22.1594083
   2.6671673   9.9621673  22.7064083   4.3321673   5.3261673  36.2014083
   3.8481673   5.9031673  36.6434083   4.3041673   5.6211673  35.3804083
   4.2561673   5.4551673  36.1454083  15.4301673   6.0101673  30.8134083
  15.6451673   5.2101673  30.5374083  14.5801673   6.0701673  30.6244083
  15.3361673   5.9011673  30.7444083   7.0521673  13.6761673  25.1124083
   6.5291673  14.3101673  24.8194083   7.3621673  13.3121673  24.3834083
   7.0201673  13.7161673  24.9614083   9.5631673   3.4781673  25.6094083
   9.9071673   3.6301673  26.3964083   9.1101673   2.7401673  25.7224083
   9.5471673   3.3911673  25.7424083   4.0391673   2.6981673  20.0664083
   4.0371673   2.5811673  19.2014083   3.8581673   3.5461673  20.1584083
   4.0121673   2.8061673  19.9524083  13.0931673  15.1251673  31.5634083
  12.4221673  15.6391673  31.7814083  13.1561673  15.2251673  30.6994083
  13.0031673  15.2161673  31.4684083   1.7771673  12.6501673  24.6984083
   1.9031673  13.4931673  24.8854083   2.4451673  12.2511673  25.0944083
   1.8951673  12.7161673  24.7844083  10.8841673   4.8101673  28.1634083
  10.2221673   5.1381673  28.6264083  11.0711673   5.4441673  27.5944083
  10.8141673   4.9521673  28.1474083   5.0891673  15.8741673  29.1594083
   4.8121673  15.2331673  28.6364083   4.8811673  16.6001673  28.7214083
   5.0181673  15.8871673  29.0174083   9.0771673   2.7791673  21.6744083
   9.5671673   3.4961673  21.5974083   8.2871673   3.0401673  21.4114083
   9.0331673   2.9231673  21.6244083  10.3911673  10.6571673  33.5844083
  10.8751673  11.3751673  33.6824083  10.7851673  10.2301673  32.9334083
  10.5211673  10.7001673  33.5024083   4.6871673  13.5021673  34.7614083
   5.0411673  13.3241673  35.5384083   4.2511673  12.7731673  34.5624083
   4.6751673  13.3681673  34.8474083   5.6591673   4.2491673  27.3994083
   6.1391673   4.9481673  27.6074083   6.0321673   3.6021673  27.8504083
   5.7851673   4.2571673  27.4964083   7.8481673   7.4181673  19.6734083
   7.8401673   8.1401673  19.1834083   7.2091673   7.5531673  20.2504083
   7.7531673   7.5451673  19.6864083  12.8201673  11.2881673  23.6544083
  13.1761673  10.9381673  24.3694083  12.8121673  10.6271673  23.0844083
  12.8721673  11.1381673  23.6754083   8.8651673  14.3541673  27.4984083
   8.2621673  14.0581673  26.9414083   9.4101673  14.8061673  26.9894083
   8.8561673  14.3771673  27.3404083   8.8781673  11.2051673  26.8984083
   8.0811673  11.4291673  27.1724083   9.1361673  10.6111673  27.4834083
   8.7981673  11.1501673  27.0254083   2.7701673  16.0171673  21.3464083
   2.6231673  15.2411673  21.7174083   3.4591673  15.8701673  20.8314083
   2.8501673  15.8801673  21.3254083   5.0621673  15.5331673  19.7484083
   5.6841673  15.6961673  20.3384083   5.0981673  16.2241673  19.2164083
   5.1591673  15.6591673  19.7574083  12.1381673   9.2031673  31.7444083
  12.1931673   9.3281673  30.8824083  12.8911673   9.5231673  32.0464083
  12.2571673   9.2681673  31.6614083   8.3291673  14.5521673  36.0214083
   8.4931673  14.8351673  36.8304083   8.5921673  15.2131673  35.5164083
   8.3921673  14.6921673  36.0664083   7.8691673   9.0091673  31.3444083
   7.7141673   9.6191673  31.9484083   8.4031673   8.4511673  31.7504083
   7.9251673   9.0171673  31.4934083   6.2531673   7.4091673  22.0024083
   6.3121673   8.0591673  22.5814083   6.0641673   6.7131673  22.4934083
   6.2341673   7.4021673  22.1604083  11.4791673  11.7381673  27.8714083
  11.0001673  12.0361673  27.2054083  11.1231673  10.9621673  28.0494083
  11.3561673  11.6671673  27.7994083   5.4761673   9.4561673  26.4334083
   4.6291673   9.2621673  26.5144083   5.8001673   9.2911673  27.2264083
   5.3981673   9.4031673  26.5624083   2.2281673  16.1861673  17.3194083
   2.6671673  15.4891673  17.6074083   2.4351673  16.8101673  17.8924083
   2.3241673  16.1751673  17.4464083   2.5541673   4.3201673  25.4844083
   3.4001673   4.1301673  25.5824083   2.1841673   3.5431673  25.3464083
   2.6241673   4.1771673  25.4784083  15.1711673  15.9041673  19.8114083
  15.8651673  15.4371673  19.5634083  14.6321673  15.3061673  20.1484083
  15.1941673  15.7461673  19.8244083  12.4101673   8.6801673  28.9904083
  12.4031673   7.9041673  29.3884083  11.5691673   8.9141673  28.9834083
  12.2851673   8.6001673  29.0484083  13.6661673   8.7511673  26.4274083
  13.3801673   9.1521673  27.1474083  14.5261673   8.6891673  26.5544083
  13.7511673   8.8011673  26.5524083   3.3551673   5.5531673  20.3354083
   3.6271673   6.3791673  20.4024083   2.4921673   5.6281673  20.2394083
   3.2681673   5.6861673  20.3304083  11.3281673   2.6751673  34.9674083
  10.8031673   3.1341673  35.4914083  10.9671673   1.8801673  34.9614083
  11.1971673   2.6251673  35.0434083  14.7971673  14.3841673  26.9564083
  15.0871673  14.6411673  26.1754083  15.4921673  14.4801673  27.4754083
  14.9431673  14.4361673  26.9174083   9.8201673   6.2441673  35.0434083
   9.8931673   6.3481673  35.9064083   9.1861673   6.8021673  34.8224083
   9.7371673   6.3421673  35.1384083  12.0881673   6.5631673  33.4084083
  12.4071673   7.3491673  33.6114083  11.7181673   6.2931673  34.1514083
  12.0811673   6.6391673  33.5484083  11.4021673  12.9871673  18.9384083
  11.7361673  12.1811673  18.9734083  10.6471673  12.9151673  19.3684083
  11.3401673  12.8571673  19.0074083  11.8841673   4.8211673  24.5974083
  11.1391673   4.4981673  24.9154083  11.8861673   5.6471673  24.8774083
  11.7741673   4.8951673  24.6854083  14.7861673   7.1051673  36.1434083
  14.7341673   6.7641673  35.3424083  15.5231673   7.5721673  36.1214083
  14.8871673   7.1241673  36.0214083  14.3241673  10.7811673  32.3494083
  14.9521673  10.2321673  32.0934083  14.2631673  11.3461673  31.6874083
  14.4081673  10.7841673  32.2134083   8.7761673  10.8621673  18.3414083
   9.4601673  10.3481673  18.1724083   8.3591673  10.9081673  17.5764083
   8.8151673  10.7931673  18.2034083   3.4581673  12.0121673  29.6454083
   3.1601673  12.6041673  30.2124083   3.5131673  12.4541673  28.8964083
   3.4221673  12.1651673  29.6184083   5.9741673   8.4351673  29.1364083
   6.4501673   8.8091673  29.7644083   5.1511673   8.5691673  29.3954083
   5.9231673   8.5101673  29.2674083   2.6841673   4.0381673  31.8774083
   2.8451673   3.2941673  32.3044083   2.6391673   3.7891673  31.0424083
   2.7011673   3.8911673  31.8174083   5.2381673  15.8281673  24.3644083
   5.7841673  16.5071673  24.4184083   4.8881673  15.9101673  23.5694083
   5.2671673  15.9411673  24.2544083   3.4211673  14.0561673  27.7534083
   2.7971673  14.6381673  27.5714083   3.6691673  13.7701673  26.9674083
   3.3651673  14.1001673  27.6104083   7.7301673  10.6901673  34.7424083
   8.4871673  10.9761673  34.4164083   7.1831673  10.7421673  34.0644083
   7.7611673  10.7401673  34.5934083  11.6391673  13.2401673  33.2464083
  11.9851673  13.5101673  34.0004083  11.9331673  13.8221673  32.6664083
  11.7341673  13.3661673  33.2724083  13.5021673   5.3861673  18.5854083
  13.8801673   6.0631673  18.1854083  12.6601673   5.6101673  18.6164083
  13.4331673   5.5191673  18.5304083   5.0151673   8.8321673  17.6684083
   4.2101673   8.6551673  17.3834083   4.9821673   9.6831673  17.8604083
   4.8911673   8.9311673  17.6554083   8.9611673   4.0011673  33.4104083
   8.3131673   4.4711673  33.7584083   9.5261673   3.9121673  34.0694083
   8.9491673   4.0571673  33.5594083   8.6491673   5.5381673  29.7084083
   8.9511673   5.9581673  30.4114083   8.6851673   4.6981673  29.9404083
   8.6991673   5.4761673  29.8464083   6.0741673  15.7051673  33.6334083
   6.5521673  15.1051673  33.2174083   5.7231673  15.2621673  34.2984083
   6.0931673  15.5511673  33.6704083  11.1971673   4.9851673  21.9604083
  11.4041673   4.7841673  22.7844083  11.9531673   5.2531673  21.6184083
  11.3391673   4.9951673  22.0314083  12.6621673   9.0121673  21.8144083
  13.1381673   8.2831673  21.7664083  11.8411673   8.7261673  21.7384083
  12.6111673   8.8621673  21.7954083   6.1331673  10.9241673  32.6534083
   5.3381673  10.8601673  33.0044083   6.2041673  11.7711673  32.4584083
   6.0261673  11.0391673  32.6764083   1.9631673  17.1311673  27.9704083
   1.9741673  17.1901673  28.8404083   1.5381673  16.3841673  27.8204083
   1.9021673  17.0291673  28.0764083   8.8781673  10.1791673  24.1694083
   8.9541673  10.5201673  24.9684083   9.0471673   9.3321673  24.2904083
   8.9141673  10.1041673  24.3054083   6.4001673   9.4531673  23.7344083
   6.1021673   9.1381673  24.4914083   7.0951673   9.9261673  23.9694083
   6.4591673   9.4761673  23.8814083   6.6221673  13.5711673  31.7614083
   7.3091673  13.4571673  32.2864083   6.7561673  14.3621673  31.4174083
   6.7431673  13.6711673  31.7884083  14.7981673   6.1801673  33.5724083
  13.9431673   6.0581673  33.6984083  14.9511673   5.7851673  32.8094083
  14.6941673   6.1031673  33.4784083   9.3111673   6.8451673  32.1484083
   9.0561673   6.1261673  32.5704083  10.1321673   6.9611673  32.4184083
   9.3951673   6.7561673  32.2504083   7.2451673   8.0351673  35.3354083
   7.5681673   8.7211673  34.9034083   6.5411673   8.3581673  35.7374083
   7.1881673   8.1841673  35.3304083  10.3291673  16.4091673  26.2644083
   9.8781673  17.0521673  26.6434083  11.0371673  16.3301673  26.7694083
  10.3671673  16.4921673  26.3954083   7.0301673  11.4991673  29.1944083
   6.3361673  11.9011673  29.5374083   7.7071673  11.9321673  29.5334083
   7.0271673  11.6221673  29.2954083  12.4071673  14.0921673  35.7744083
  13.1831673  13.7021673  35.8574083  11.9381673  13.7561673  36.4294083
  12.4521673  13.9851673  35.8834083  13.4321673   6.1251673  21.2564083
  13.5351673   6.0671673  20.3924083  14.1731673   5.7931673  21.5744083
  13.5571673   6.0681673  21.1754083   7.3521673  13.0901673  22.3634083
   7.1471673  13.9231673  22.2044083   6.5771673  12.7081673  22.4854083
   7.2071673  13.1571673  22.3584083  12.5341673   6.2711673  30.6124083
  12.5321673   5.4081673  30.7364083  12.6011673   6.5951673  31.4194083
  12.5441673   6.1911673  30.7494083   2.7141673  13.3521673  18.7724083
   3.1551673  13.4321673  19.5204083   1.9091673  13.1361673  19.0304083
   2.6601673  13.3321673  18.9214083  11.0051673   1.7771673  28.0484083
  11.8601673   1.8761673  28.1934083  10.6361673   2.3301673  28.6134083
  11.0771673   1.8741673  28.1534083   2.0331673   8.0031673  32.4254083
   1.6371673   8.7771673  32.5004083   1.6271673   7.6301673  31.7494083
   1.9151673   8.0621673  32.3364083  11.3091673   7.0571673  26.5394083
  11.9751673   7.5981673  26.6994083  10.9641673   7.3681673  25.8004083
  11.3561673   7.1831673  26.4544083  11.6221673  15.1231673  22.3464083
  11.4481673  14.4691673  22.8964083  12.3351673  14.8521673  21.9234083
  11.7021673  14.9861673  22.3654083   2.8621673  10.6671673  18.1164083
   2.0441673  10.3991673  18.2564083   2.8341673  11.5191673  18.3014083
   2.7371673  10.7541673  18.1644083   9.2971673  12.5761673  30.0374083
   9.5031673  12.8771673  30.8294083   9.2361673  13.2981673  29.5524083
   9.3181673  12.7271673  30.0824083   8.8311673  16.7901673  34.2834083
   8.0781673  16.7721673  33.8424083   8.9991673  17.6421673  34.3674083
   8.7451673  16.9131673  34.2304083   4.0681673   6.0571673  33.4534083
   3.7461673   5.4811673  32.8834083   3.7091673   6.8121673  33.2074083
   3.9681673   6.0831673  33.3334083  14.1091673  11.2151673  29.4954083
  14.0771673  10.3531673  29.3604083  13.4161673  11.5171673  29.0614083
  14.0021673  11.1321673  29.4114083   2.5031673  16.4131673  33.7014083
   2.5441673  16.5391673  34.5644083   3.1541673  15.8531673  33.5454083
   2.6051673  16.3491673  33.8064083  12.2141673  14.4751673  28.2924083
  12.7411673  14.3921673  27.6014083  11.8231673  13.6971673  28.3464083
  12.2341673  14.3481673  28.1984083   8.0871673   5.7271673  24.9934083
   8.6381673   5.1201673  25.2934083   7.6621673   5.9901673  25.7084083
   8.1061673   5.6761673  25.1424083  10.0571673   7.5581673  21.5554083
  10.1251673   6.7081673  21.7364083   9.2341673   7.6441673  21.2774083
   9.9451673   7.4451673  21.5414083   3.9761673   8.4491673  20.4934083
   4.0761673   8.5881673  19.6384083   4.7941673   8.3891673  20.7894083
   4.1111673   8.4601673  20.4104083  13.1361673  16.5131673  17.9734083
  13.7731673  16.3791673  18.5544083  12.7951673  15.7191673  17.8564083
  13.1801673  16.3761673  18.0414083  13.3311673   8.9311673  34.7064083
  13.9651673   8.7611673  35.2804083  13.7481673   9.3341673  34.0544083
  13.4861673   8.9661673  34.6954083   9.2111673  12.7781673  20.2954083
   8.9601673  12.6501673  21.1214083   8.8941673  12.0831673  19.8744083
   9.1271673  12.6571673  20.3554083  13.9561673   3.4951673  35.4444083
  13.7601673   4.1391673  35.9994083  13.2341673   3.0051673  35.4364083
  13.8211673   3.5181673  35.5254083  13.8551673   4.4361673  28.4154083
  13.0221673   4.6861673  28.3434083  13.7991673   3.5961673  28.6444083
  13.7241673   4.3491673  28.4384083  10.7421673   9.0421673  36.0614083
  11.6131673   9.0061673  36.0254083  10.5231673   9.4621673  35.3294083
  10.8391673   9.0981673  35.9484083   6.0971673  10.9861673  19.7254083
   6.8141673  10.6391673  19.3694083   6.0631673  11.7861673  19.3774083
   6.1981673  11.0531673  19.6214083   7.3151673   6.5431673   8.6351673
   6.7911673   7.1391673   8.9981673   7.7121673   6.1751673   9.3191673
   7.2961673   6.5771673   8.7901673   9.9861673   7.6101673   5.3111673
  10.0661673   7.6141673   4.4421673   9.4021673   6.9781673   5.4601673
   9.9111673   7.5171673   5.2051673   3.6981673  10.9431673  15.4131673
   3.4621673  10.9401673  16.2531673   2.9501673  10.7951673  14.9891673
   3.5521673  10.9201673  15.4741673   3.0781673   3.5491673   9.8951673
   3.7561673   3.5671673   9.3461673   3.0331673   2.7131673  10.1401673
   3.1711673   3.4281673   9.8501673   3.6801673  14.1351673  12.6761673
   3.8181673  14.8951673  12.2691673   4.4711673  13.7701673  12.7031673
   3.8171673  14.1941673  12.6201673   4.7751673  12.0201673   7.1811673
   5.1231673  11.2211673   7.2111673   5.4401673  12.5241673   6.9261673
   4.9251673  11.9761673   7.1481673   4.8321673  11.4691673   3.3921673
   5.1631673  10.8251673   3.8781673   5.0721673  11.2581673   2.5811673
   4.9161673  11.3431673   3.3441673   6.8001673   5.6001673  14.7311673
   5.9521673   5.5011673  14.5531673   6.8291673   6.3451673  15.1851673
   6.6791673   5.6961673  14.7721673   2.7761673  13.2541673   2.9411673
   2.1971673  12.9791673   3.5331673   3.4001673  12.6451673   2.9661673
   2.7831673  13.1241673   3.0321673   7.0871673  15.9341673   2.4531673
   7.3011673  16.4611673   3.1151673   7.8541673  15.7601673   2.0741673
   7.2321673  15.9861673   2.4951673   3.3611673   2.6501673  17.3501673
   3.4781673   2.1961673  16.6141673   3.6491673   3.4481673  17.1471673
   3.4211673   2.7011673  17.2111673  14.2141673   3.1741673   4.6541673
  13.8681673   3.8521673   5.0801673  13.5781673   2.5761673   4.6701673
  14.0691673   3.1861673   4.7191673   9.5261673  15.9441673  10.7581673
  10.2701673  16.4001673  10.7481673   9.4051673  15.7301673   9.9211673
   9.6181673  15.9801673  10.6331673   2.5301673  15.4191673   6.1881673
   3.3741673  15.5231673   5.9931673   2.2331673  16.2371673   6.2561673
   2.6111673  15.5551673   6.1691673   6.3371673   4.8161673   4.2751673
   6.6241673   4.5841673   3.4851673   7.0691673   4.8951673   4.7441673
   6.4871673   4.7931673   4.2281673   8.7801673  13.1291673  14.4621673
   8.7461673  13.5111673  15.2461673   9.6341673  13.0871673  14.2911673
   8.9011673  13.1791673  14.5531673   7.2321673  16.2931673  11.9601673
   8.0001673  16.2131673  11.5541673   6.6491673  16.1721673  11.3221673
   7.2591673  16.2631673  11.8061673  13.5091673  16.8961673   4.8611673
  13.0541673  17.6131673   5.0621673  12.8951673  16.3251673   4.6191673
  13.3511673  16.9181673   4.8551673   5.2811673   2.9061673   5.9931673
   5.3551673   3.4741673   5.3351673   5.4021673   3.3981673   6.7031673
   5.3091673   3.0631673   6.0011673  10.5061673  12.7411673   4.4051673
  11.2071673  12.2591673   4.5941673   9.8461673  12.1721673   4.4501673
  10.5121673  12.5861673   4.4391673   2.8451673   9.1621673   8.3661673
   3.0171673   8.9521673   9.1951673   2.1901673   8.6281673   8.1501673
   2.7741673   9.0521673   8.4571673   9.0731673   3.0761673  11.8811673
   8.9781673   3.3951673  12.6871673   8.4801673   2.4371673  11.8431673
   8.9711673   3.0281673  11.9951673   3.5951673   9.1001673  10.9561673
   3.6481673   9.9471673  11.1581673   3.3101673   8.7301673  11.6931673
   3.5611673   9.1701673  11.0941673   9.7721673   9.7951673  10.0861673
   9.2581673   9.3831673  10.6571673   9.6461673  10.6391673  10.2671673
   9.6781673   9.8591673  10.1971673  12.7931673   3.2561673  13.0251673
  13.5651673   3.0311673  13.3621673  12.3181673   3.4731673  13.7251673
  12.8371673   3.2551673  13.1781673  15.2591673  14.7431673  14.4671673
  14.5771673  15.0531673  14.0201673  14.8901673  14.2851673  15.1121673
  15.1031673  14.7211673  14.4961673   2.5291673   9.9731673   3.7791673
   3.2421673  10.4681673   3.8691673   2.7511673   9.4061673   3.1531673
   2.6671673   9.9621673   3.7001673   4.3321673   5.3261673  17.1951673
   3.8481673   5.9031673  17.6371673   4.3041673   5.6211673  16.3741673
   4.2561673   5.4551673  17.1391673  15.4301673   6.0101673  11.8071673
  15.6451673   5.2101673  11.5311673  14.5801673   6.0701673  11.6181673
  15.3361673   5.9011673  11.7381673   7.0521673  13.6761673   6.1061673
   6.5291673  14.3101673   5.8131673   7.3621673  13.3121673   5.3771673
   7.0201673  13.7161673   5.9551673   9.5631673   3.4781673   6.6031673
   9.9071673   3.6301673   7.3901673   9.1101673   2.7401673   6.7161673
   9.5471673   3.3911673   6.7361673  13.0931673  15.1251673  12.5571673
  12.4221673  15.6391673  12.7751673  13.1561673  15.2251673  11.6931673
  13.0031673  15.2161673  12.4621673   1.7771673  12.6501673   5.6921673
   1.9031673  13.4931673   5.8791673   2.4451673  12.2511673   6.0881673
   1.8951673  12.7161673   5.7781673  10.8841673   4.8101673   9.1571673
  10.2221673   5.1381673   9.6201673  11.0711673   5.4441673   8.5881673
  10.8141673   4.9521673   9.1411673   5.0891673  15.8741673  10.1531673
   4.8121673  15.2331673   9.6301673   4.8811673  16.6001673   9.7151673
   5.0181673  15.8871673  10.0111673   9.0771673   2.7791673   2.6681673
   9.5671673   3.4961673   2.5911673   8.2871673   3.0401673   2.4051673
   9.0331673   2.9231673   2.6181673  10.3911673  10.6571673  14.5781673
  10.8751673  11.3751673  14.6761673  10.7851673  10.2301673  13.9271673
  10.5211673  10.7001673  14.4961673   4.6871673  13.5021673  15.7551673
   5.0411673  13.3241673  16.5321673   4.2511673  12.7731673  15.5561673
   4.6751673  13.3681673  15.8411673   5.6591673   4.2491673   8.3931673
   6.1391673   4.9481673   8.6011673   6.0321673   3.6021673   8.8441673
   5.7851673   4.2571673   8.4901673  12.8201673  11.2881673   4.6481673
  13.1761673  10.9381673   5.3631673  12.8121673  10.6271673   4.0781673
  12.8721673  11.1381673   4.6691673   8.8651673  14.3541673   8.4921673
   8.2621673  14.0581673   7.9351673   9.4101673  14.8061673   7.9831673
   8.8561673  14.3771673   8.3341673   8.8781673  11.2051673   7.8921673
   8.0811673  11.4291673   8.1661673   9.1361673  10.6111673   8.4771673
   8.7981673  11.1501673   8.0191673   2.7701673  16.0171673   2.3401673
   2.6231673  15.2411673   2.7111673   3.4591673  15.8701673   1.8251673
   2.8501673  15.8801673   2.3191673  12.1381673   9.2031673  12.7381673
  12.1931673   9.3281673  11.8761673  12.8911673   9.5231673  13.0401673
  12.2571673   9.2681673  12.6551673   8.3291673  14.5521673  17.0151673
   8.4931673  14.8351673  17.8241673   8.5921673  15.2131673  16.5101673
   8.3921673  14.6921673  17.0601673   7.8691673   9.0091673  12.3381673
   7.7141673   9.6191673  12.9421673   8.4031673   8.4511673  12.7441673
   7.9251673   9.0171673  12.4871673   6.2531673   7.4091673   2.9961673
   6.3121673   8.0591673   3.5751673   6.0641673   6.7131673   3.4871673
   6.2341673   7.4021673   3.1541673  11.4791673  11.7381673   8.8651673
  11.0001673  12.0361673   8.1991673  11.1231673  10.9621673   9.0431673
  11.3561673  11.6671673   8.7931673   5.4761673   9.4561673   7.4271673
   4.6291673   9.2621673   7.5081673   5.8001673   9.2911673   8.2201673
   5.3981673   9.4031673   7.5561673   2.5541673   4.3201673   6.4781673
   3.4001673   4.1301673   6.5761673   2.1841673   3.5431673   6.3401673
   2.6241673   4.1771673   6.4721673  12.4101673   8.6801673   9.9841673
  12.4031673   7.9041673  10.3821673  11.5691673   8.9141673   9.9771673
  12.2851673   8.6001673  10.0421673  13.6661673   8.7511673   7.4211673
  13.3801673   9.1521673   8.1411673  14.5261673   8.6891673   7.5481673
  13.7511673   8.8011673   7.5461673  11.3281673   2.6751673  15.9611673
  10.8031673   3.1341673  16.4851673  10.9671673   1.8801673  15.9551673
  11.1971673   2.6251673  16.0371673  14.7971673  14.3841673   7.9501673
  15.0871673  14.6411673   7.1691673  15.4921673  14.4801673   8.4691673
  14.9431673  14.4361673   7.9111673   9.8201673   6.2441673  16.0371673
   9.8931673   6.3481673  16.9001673   9.1861673   6.8021673  15.8161673
   9.7371673   6.3421673  16.1321673  12.0881673   6.5631673  14.4021673
  12.4071673   7.3491673  14.6051673  11.7181673   6.2931673  15.1451673
  12.0811673   6.6391673  14.5421673  11.8841673   4.8211673   5.5911673
  11.1391673   4.4981673   5.9091673  11.8861673   5.6471673   5.8711673
  11.7741673   4.8951673   5.6791673  14.7861673   7.1051673  17.1371673
  14.7341673   6.7641673  16.3361673  15.5231673   7.5721673  17.1151673
  14.8871673   7.1241673  17.0151673  14.3241673  10.7811673  13.3431673
  14.9521673  10.2321673  13.0871673  14.2631673  11.3461673  12.6811673
  14.4081673  10.7841673  13.2071673   3.4581673  12.0121673  10.6391673
   3.1601673  12.6041673  11.2061673   3.5131673  12.4541673   9.8901673
   3.4221673  12.1651673  10.6121673   5.9741673   8.4351673  10.1301673
   6.4501673   8.8091673  10.7581673   5.1511673   8.5691673  10.3891673
   5.9231673   8.5101673  10.2611673   2.6841673   4.0381673  12.8711673
   2.8451673   3.2941673  13.2981673   2.6391673   3.7891673  12.0361673
   2.7011673   3.8911673  12.8111673   5.2381673  15.8281673   5.3581673
   5.7841673  16.5071673   5.4121673   4.8881673  15.9101673   4.5631673
   5.2671673  15.9411673   5.2481673   3.4211673  14.0561673   8.7471673
   2.7971673  14.6381673   8.5651673   3.6691673  13.7701673   7.9611673
   3.3651673  14.1001673   8.6041673   7.7301673  10.6901673  15.7361673
   8.4871673  10.9761673  15.4101673   7.1831673  10.7421673  15.0581673
   7.7611673  10.7401673  15.5871673  11.6391673  13.2401673  14.2401673
  11.9851673  13.5101673  14.9941673  11.9331673  13.8221673  13.6601673
  11.7341673  13.3661673  14.2661673   8.9611673   4.0011673  14.4041673
   8.3131673   4.4711673  14.7521673   9.5261673   3.9121673  15.0631673
   8.9491673   4.0571673  14.5531673   8.6491673   5.5381673  10.7021673
   8.9511673   5.9581673  11.4051673   8.6851673   4.6981673  10.9341673
   8.6991673   5.4761673  10.8401673   6.0741673  15.7051673  14.6271673
   6.5521673  15.1051673  14.2111673   5.7231673  15.2621673  15.2921673
   6.0931673  15.5511673  14.6641673  11.1971673   4.9851673   2.9541673
  11.4041673   4.7841673   3.7781673  11.9531673   5.2531673   2.6121673
  11.3391673   4.9951673   3.0251673  12.6621673   9.0121673   2.8081673
  13.1381673   8.2831673   2.7601673  11.8411673   8.7261673   2.7321673
  12.6111673   8.8621673   2.7891673   6.1331673  10.9241673  13.6471673
   5.3381673  10.8601673  13.9981673   6.2041673  11.7711673  13.4521673
   6.0261673  11.0391673  13.6701673   1.9631673  17.1311673   8.9641673
   1.9741673  17.1901673   9.8341673   1.5381673  16.3841673   8.8141673
   1.9021673  17.0291673   9.0701673   8.8781673  10.1791673   5.1631673
   8.9541673  10.5201673   5.9621673   9.0471673   9.3321673   5.2841673
   8.9141673  10.1041673   5.2991673   6.4001673   9.4531673   4.7281673
   6.1021673   9.1381673   5.4851673   7.0951673   9.9261673   4.9631673
   6.4591673   9.4761673   4.8751673   6.6221673  13.5711673  12.7551673
   7.3091673  13.4571673  13.2801673   6.7561673  14.3621673  12.4111673
   6.7431673  13.6711673  12.7821673  14.7981673   6.1801673  14.5661673
  13.9431673   6.0581673  14.6921673  14.9511673   5.7851673  13.8031673
  14.6941673   6.1031673  14.4721673   9.3111673   6.8451673  13.1421673
   9.0561673   6.1261673  13.5641673  10.1321673   6.9611673  13.4121673
   9.3951673   6.7561673  13.2441673   7.2451673   8.0351673  16.3291673
   7.5681673   8.7211673  15.8971673   6.5411673   8.3581673  16.7311673
   7.1881673   8.1841673  16.3241673  10.3291673  16.4091673   7.2581673
   9.8781673  17.0521673   7.6371673  11.0371673  16.3301673   7.7631673
  10.3671673  16.4921673   7.3891673   7.0301673  11.4991673  10.1881673
   6.3361673  11.9011673  10.5311673   7.7071673  11.9321673  10.5271673
   7.0271673  11.6221673  10.2891673  12.4071673  14.0921673  16.7681673
  13.1831673  13.7021673  16.8511673  11.9381673  13.7561673  17.4231673
  12.4521673  13.9851673  16.8771673   7.3521673  13.0901673   3.3571673
   7.1471673  13.9231673   3.1981673   6.5771673  12.7081673   3.4791673
   7.2071673  13.1571673   3.3521673  12.5341673   6.2711673  11.6061673
  12.5321673   5.4081673  11.7301673  12.6011673   6.5951673  12.4131673
  12.5441673   6.1911673  11.7431673  11.0051673   1.7771673   9.0421673
  11.8601673   1.8761673   9.1871673  10.6361673   2.3301673   9.6071673
  11.0771673   1.8741673   9.1471673   2.0331673   8.0031673  13.4191673
   1.6371673   8.7771673  13.4941673   1.6271673   7.6301673  12.7431673
   1.9151673   8.0621673  13.3301673  11.3091673   7.0571673   7.5331673
  11.9751673   7.5981673   7.6931673  10.9641673   7.3681673   6.7941673
  11.3561673   7.1831673   7.4481673  11.6221673  15.1231673   3.3401673
  11.4481673  14.4691673   3.8901673  12.3351673  14.8521673   2.9171673
  11.7021673  14.9861673   3.3591673   9.2971673  12.5761673  11.0311673
   9.5031673  12.8771673  11.8231673   9.2361673  13.2981673  10.5461673
   9.3181673  12.7271673  11.0761673   8.8311673  16.7901673  15.2771673
   8.0781673  16.7721673  14.8361673   8.9991673  17.6421673  15.3611673
   8.7451673  16.9131673  15.2241673   4.0681673   6.0571673  14.4471673
   3.7461673   5.4811673  13.8771673   3.7091673   6.8121673  14.2011673
   3.9681673   6.0831673  14.3271673  14.1091673  11.2151673  10.4891673
  14.0771673  10.3531673  10.3541673  13.4161673  11.5171673  10.0551673
  14.0021673  11.1321673  10.4051673   2.5031673  16.4131673  14.6951673
   2.5441673  16.5391673  15.5581673   3.1541673  15.8531673  14.5391673
   2.6051673  16.3491673  14.8001673  12.2141673  14.4751673   9.2861673
  12.7411673  14.3921673   8.5951673  11.8231673  13.6971673   9.3401673
  12.2341673  14.3481673   9.1921673   8.0871673   5.7271673   5.9871673
   8.6381673   5.1201673   6.2871673   7.6621673   5.9901673   6.7021673
   8.1061673   5.6761673   6.1361673  10.0571673   7.5581673   2.5491673
  10.1251673   6.7081673   2.7301673   9.2341673   7.6441673   2.2711673
   9.9451673   7.4451673   2.5351673  13.3311673   8.9311673  15.7001673
  13.9651673   8.7611673  16.2741673  13.7481673   9.3341673  15.0481673
  13.4861673   8.9661673  15.6891673  13.9561673   3.4951673  16.4381673
  13.7601673   4.1391673  16.9931673  13.2341673   3.0051673  16.4301673
  13.8211673   3.5181673  16.5191673  13.8551673   4.4361673   9.4091673
  13.0221673   4.6861673   9.3371673  13.7991673   3.5961673   9.6381673
  13.7241673   4.3491673   9.4321673  10.7421673   9.0421673  17.0551673
  11.6131673   9.0061673  17.0191673  10.5231673   9.4621673  16.3231673
  10.8391673   9.0981673  16.9421673
  68.1438665  71.6866585  91.8232985  90.0000000  90.0000000  90.0000000
