default_name
 44867
  35.2937594  27.2491927  64.7253481  35.8379645  28.0988349  64.7706247
  35.7910066  26.5748842  64.1612970  34.9953221  27.0047310  65.6587683
  34.0687594  27.5351927  63.9923481  33.9900817  26.9215344  63.0949449
  32.8487594  27.2601927  64.8833481  32.8770319  27.9294725  65.7432112
  31.5817594  27.4881927  64.1143481  31.5525498  26.8188963  63.2545284
  30.7247616  27.2896469  64.7579589  31.5456901  28.5220029  63.7707829
  32.8977594  25.8421927  65.3963481  33.8079560  25.6970170  65.9782143
  32.0295312  25.6534831  66.0277498  32.8912451  25.1501738  64.5542268
  34.0967594  28.9671927  63.4763481  33.7107594  29.2461927  62.3323481
  34.6387594  29.8811927  64.2803481  34.9105669  29.6477107  65.2246501
  34.7967594  31.2551927  63.8383481  33.8965215  31.5945949  63.3260230
  35.0477594  32.1631927  65.0333481  34.2158894  32.0713416  65.7316718
  36.3277594  31.7751927  65.7243481  37.1602038  31.8672435  65.0267361
  36.4946904  32.4330719  66.5772421  36.2564596  30.7439380  66.0700803
  35.1387594  33.5191927  64.5873481  35.2971308  34.0936542  65.3400186
  35.9187594  31.4161927  62.8273481  35.8987594  32.3831927  62.0663481
  36.7717594  30.4131927  62.6593481  36.7588549  29.6000336  63.2582681
  37.7907594  30.4921927  61.6273481  38.0823639  31.5325894  61.4836795
  39.0277594  29.6881927  62.0123481  38.7397598  28.6770187  62.2998942
  39.7305383  29.6425503  61.1804115  39.7727594  30.2651927  63.1693481
  40.5217594  31.4151927  63.0663481  40.6373072  31.9532946  62.2194746
  41.0557594  31.6931927  64.2413481  41.6836146  32.5747367  64.3708740
  40.6857594  30.7601927  65.0983481  39.8787594  29.8571927  64.4533481
  39.4648655  29.0092128  64.9989882  37.2497594  30.0011927  60.3053481
  37.5857594  30.5731927  59.2643481  36.3577594  29.0101927  60.3363481
  36.1403115  28.5121838  61.1877017  35.7077594  28.5881927  59.1053481
  36.4530463  28.4493234  58.3221738  34.9727594  27.2701927  59.3173481
  34.3297067  27.3926206  60.1888950  34.3579075  27.0947137  58.4345886
  35.8927594  26.0911927  59.5323481  36.6618302  26.1087376  58.7601285
  36.3598585  26.1925624  60.5119627  35.1387594  24.7751927  59.4653481
  34.5825060  24.7416947  58.5285670  35.8618641  23.9598781  59.4872844
  34.2037594  24.6001927  60.5703481  33.2677345  24.9599028  60.4496609
  34.5117594  24.0071927  61.7183481  35.7307594  23.5261927  61.9123481
  36.4257919  23.6116342  61.1845229  35.9594791  23.0762500  62.7871844
  33.5977594  23.8871927  62.6723481  32.6663211  24.2482026  62.5233694
  33.8375476  23.4353774  63.5432461  34.7537594  29.6741927  58.6453481
  34.6547594  29.9541927  57.4433481  34.0947594  30.3371927  59.6013481
  34.1504289  30.0522412  60.5687172  33.2077594  31.4381927  59.2563481
  32.5311216  31.1326661  58.4582792  32.3767594  31.8511927  60.4693481
  31.8738687  30.9544070  60.8312536  33.1082866  32.1798652  61.2075502
  31.3477594  32.9561927  60.2463481  31.1412168  33.0454178  59.1798211
  30.0837594  32.6291927  60.9723481  30.2894309  32.5402591  62.0390669
  29.3543507  33.4224000  60.8083789  29.6839202  31.6859861  60.6000709
  31.8607594  34.2621927  60.7893481  32.7865716  34.5295025  60.2799204
  31.1174365  35.0420846  60.6239972  32.0504533  34.1624968  61.8580744
  34.0107594  32.6071927  58.6973481  33.5837594  33.2381927  57.7253481
  35.1647594  32.9141927  59.3083481  35.4594380  32.3952419  60.1231818
  35.9977594  34.0241927  58.8563481  35.4089373  34.9409498  58.8256194
  37.1657594  34.2271927  59.8153481  37.7699623  33.3206359  59.8498982
  37.7794644  35.0592973  59.4702854  36.7839641  34.4469613  60.8123604
  36.5017594  33.7631927  57.4473481  36.4667594  34.6541927  56.5893481
  37.0057594  32.5471927  57.2123481  37.0486105  31.8643992  57.9553530
  37.5027594  32.1691927  55.8993481  38.3305665  32.8292352  55.6401602
  37.8604127  31.1407052  55.9483074  36.4367594  32.2701927  54.8263481
  36.6597594  32.8751927  53.7693481  35.2707594  31.6541927  55.0793481
  35.1347716  31.1305025  55.9321994  34.1877594  31.6801927  54.1043481
  34.5351694  31.2955765  53.1454551  33.0377594  30.8071927  54.5913481
  33.4919350  29.8222868  54.6999025  32.7331649  31.1762050  55.5707113
  31.8177594  30.7061927  53.6853481  31.4327822  31.7071176  53.4903026
  32.1947594  30.0471927  52.3763481  32.5794166  29.0459834  52.5705586
  31.3151108  29.9800543  51.7361829  32.9616951  30.6401813  51.8780765
  30.7127594  29.9381927  54.3793481  30.4327418  30.4538363  55.2979347
  29.8462570  29.8729585  53.7213060  31.0626566  28.9341124  54.6191268
  33.7007594  33.0991927  53.8493481  33.4207594  33.4561927  52.6993481
  33.5517594  33.9051927  54.9073481  33.6923063  33.5675660  55.8488120
  33.0927594  35.2771927  54.7263481  32.1768727  35.2698295  54.1354196
  32.8097594  35.9661927  56.0533481  33.5904182  35.6269754  56.7342319
  32.8996937  37.0423784  55.9055771  31.4487594  35.6491927  56.6463481
  31.3827819  34.5865658  56.8799544  31.2787594  36.4501927  57.9063481
  31.3441593  37.5130112  57.6734563  30.3050354  36.2343767  58.3461047
  32.0635977  36.1850321  58.6147400  30.3577594  35.9751927  55.6393481
  30.5047190  35.3798852  54.7381760  29.3836454  35.7454383  56.0711075
  30.4014744  37.0343529  55.3856406  34.0817594  36.0921927  53.9163481
  33.6767594  36.9111927  53.0933481  35.3777594  35.9591927  54.2063481
  35.7012638  35.3698786  54.9601075  36.3637594  36.7241927  53.4563481
  36.1102880  37.7840351  53.4805456  37.7457594  36.5401927  54.0693481
  37.7413457  36.9365569  55.0847176  37.9856796  35.4772551  54.0958426
  38.7167594  37.2231927  53.3013481  39.5825808  37.0998735  53.6972592
  36.3837594  36.3191927  51.9893481  36.4217594  37.1791927  51.1053481
  36.3597594  35.0131927  51.7183481  36.3522514  34.3302698  52.4624310
  36.4007594  34.5341927  50.3393481  37.2269783  34.9992845  49.8016204
  36.6037594  33.0251927  50.3323481  37.3987893  32.8089966  51.0459909
  35.6724266  32.5784510  50.6804016  36.9637594  32.4511927  48.9943481
  36.1960091  32.7164618  48.2675108  37.9233516  32.8557864  48.6724960
  37.0607594  30.9491927  49.0973481  36.0739419  30.5390954  49.3120816
  37.4229659  30.5466209  48.1513873  37.9767594  30.5441927  50.1593481
  37.5578370  30.2937799  51.0435974  39.2997594  30.4801927  50.0433481
  39.8957594  30.8001927  48.9033481  39.3411686  31.0961334  48.1128115
  40.9017052  30.7465890  48.8305524  40.0327594  30.0961927  51.0783481
  39.5830291  29.8541724  51.9497085  41.0377933  30.0473048  50.9910816
  35.1427594  34.8881927  49.5473481  35.2287594  35.3181927  48.3923481
  33.9727594  34.7171927  50.1533481  33.9882001  34.3816971  51.1058730
  32.6797594  34.8901927  49.5023481  32.7961616  34.9513137  48.4203066
  31.8107594  33.6861927  49.8303481  31.6977143  33.6084302  50.9116774
  30.8304886  33.8147457  49.3713891  32.4127594  32.5061927  49.3333481
  31.8587103  31.7510814  49.5441473  31.9367594  36.1841927  49.8283481
  30.7417594  36.2631927  49.5323481  32.5727594  37.1261927  50.5323481
  33.5282677  36.9671877  50.8183913  31.9347594  38.3931927  50.9103481
  31.1962362  38.1597339  51.6772768  32.7135377  39.0252802  51.3370438
  31.2537594  39.1431927  49.7813481  30.1237594  39.6151927  49.9253481
  31.9207594  39.2441927  48.6383481  32.8165549  38.7853107  48.5542232
  31.4187594  39.9881927  47.4973481  31.0805885  40.9521056  47.8776263
  32.2646158  40.1392641  46.8266740  30.2897594  39.3391927  46.7273481
  29.8827594  39.8831927  45.6963481  29.7597594  38.2121927  47.1913481
  30.1386589  37.7586859  48.0104123  28.6617594  37.5611927  46.4863481
  28.8063996  37.5964701  45.4065639  28.5507594  36.0901927  46.9193481
  28.5201723  36.0418418  48.0078452  27.2967594  35.4661927  46.3523481
  27.3268353  35.5137583  45.2638014  27.2335451  34.4249371  46.6684039
  26.4240535  36.0091307  46.7152591  29.7657594  35.3261927  46.4583481
  30.6604792  35.7642122  46.9007477  29.6801205  34.2848204  46.7686857
  29.8364605  35.3763368  45.3717996  27.3587594  38.3051927  46.7283481
  26.6747594  38.7181927  45.7853481  26.9957594  38.4941927  47.9863481
  27.5288759  38.1071375  48.7519031  25.7687594  39.2081927  48.2933481
  25.0528394  39.1310905  47.4750493  25.1187594  38.6661927  49.5623481
  25.8397434  38.7075268  50.3787873  23.9017594  39.4941927  49.9213481
  23.1800737  39.4529648  49.1055228  23.4465593  39.0974697  50.8288195
  24.2018645  40.5286742  50.0883406  24.7367594  37.2151927  49.3663481
  25.6293260  36.6310199  49.1423639  24.2731699  36.8348419  50.2765776
  24.0322246  37.1330248  48.5387130  26.0547594  40.6981927  48.4193481
  26.7437594  41.1301927  49.3423481  25.6247594  41.4971927  47.4323481
  25.0258282  41.1392633  46.7020966  25.8637594  42.9121927  47.4843481
  25.8028964  43.1946218  48.5353613  27.2117594  43.4291927  46.9083481
  27.2936945  42.9256905  45.9450873  27.0356992  44.4928527  46.7479420
  28.5127594  43.2401927  47.6953481  28.4024187  43.7386061  48.6584213
  28.6611790  42.1721318  47.8544697  29.7277594  43.8211927  46.9543481
  29.7310666  44.8947232  47.1430816  30.6155613  43.3718489  47.3993172
  29.7307594  43.5681927  45.4403481  30.7393064  43.2867008  45.1375349
  29.0450477  42.7489814  45.2240345  29.3087594  44.7771927  44.6903481
  29.9442768  45.5362911  44.8903154  29.3207312  44.5801295  43.6998317
  28.3740771  45.0379466  44.9704830  24.8787594  43.4841927  46.5383481
  23.9257594  42.8181927  46.1323481  25.1107594  44.7671927  46.1973481
  25.8517592  45.2230390  46.7104006  24.4117594  45.5211927  45.2003481
  23.3422317  45.4883926  45.4080352  24.8657594  46.9951927  45.1843481
  24.3044740  47.5768490  44.4530931  24.7093113  47.4140620  46.1784168
  26.3517594  47.0871927  44.8443481  27.1937594  46.3851927  45.4033481
  26.6757594  47.9661927  43.8573481  27.6409287  48.0777345  43.5814742
  25.9496100  48.5031040  43.4050937  24.6827594  44.9081927  43.8453481
  23.7387594  44.6371927  43.1083481  25.9667594  44.6441927  43.4823481
  26.7826128  44.8946023  44.0225125  26.1617594  43.9931927  42.2143481
  25.2368282  43.4879719  41.9362233  26.5437594  44.9781927  41.0883481
  26.5810721  44.5010851  40.1090242  25.8037978  45.7784142  41.0741199
  27.9137594  45.5851927  41.3883481  28.1737594  46.0951927  42.4773481
  28.8387594  45.4731927  40.4013481  29.7647382  45.8534609  40.5357325
  28.5969171  45.0100871  39.5369719  27.2367594  42.9281927  42.2693481
  28.3927594  43.1881927  42.6053481  26.8707594  41.6741927  41.9393481
  25.8926883  41.4231146  41.9184642  27.8567594  40.6371927  41.6593481
  28.8451819  41.0858202  41.5600830  27.8967594  39.6141927  42.7923481
  28.2283804  40.0896689  43.7154132  26.9091173  39.1784140  42.9432125
  28.8327594  38.4751927  42.5373481  30.2027594  38.6681927  42.5823481
  30.5947625  39.6590295  42.8118606  31.0697594  37.6221927  42.3403481
  32.1469107  37.7857984  42.3731961  30.5707594  36.3671927  42.0563481
  31.2520027  35.5369426  41.8700892  29.2047594  36.1641927  42.0083481
  28.8082844  35.1751243  41.7788892  28.3447594  37.2111927  42.2503481
  27.2672217  37.0502100  42.2172258  27.5797594  39.9281927  40.3433481
  26.4367594  39.6001927  40.0343481  28.6367594  39.6801927  39.5803481
  29.5469920  39.9975910  39.8817354  28.5337594  38.9931927  38.2983481
  27.5377975  39.0823833  37.8645231  29.5557594  39.5341927  37.2933481
  30.5557322  39.4371411  37.7161183  29.4797594  38.7581927  35.9923481
  28.4801429  38.8551580  35.5687143  30.2119517  39.1546456  35.2889137
  29.6924882  37.7063146  36.1831375  29.3337594  41.0171927  37.0623481
  29.4446276  41.5528873  38.0051321  30.0671622  41.3876632  36.3461278
  28.3297684  41.1779657  36.6695950  28.7567594  37.5021927  38.5413481
  29.8407594  37.1241927  39.0093481  27.7827594  36.6451927  38.2493481
  26.3697594  36.9621927  38.0003481  26.2116081  37.1296446  36.9349617
  26.0898385  37.8584365  38.5539639  25.6667594  35.7401927  38.5003481
  24.7189116  35.6169478  37.9764261  25.4806473  35.8311252  39.5704860
  26.5927594  34.6151927  38.2173481  26.4626219  34.3180325  37.1767430
  26.4578279  33.7468489  38.8622296  27.9907594  35.2031927  38.4193481
  28.3812621  35.0243739  39.4211614  28.9667594  34.6621927  37.3933481
  28.9967594  35.1041927  36.2443481  29.7707594  33.6981927  37.8193481
  29.7365801  33.3805756  38.7774977  30.7467594  33.0951927  36.9283481
  31.2697237  33.8757839  36.3758222  31.7697594  32.2961927  37.7293481
  31.2589646  31.4825627  38.2443192  32.8297594  31.7271927  36.8173481
  33.3413360  32.5403089  36.3023423  33.5506817  31.1604478  37.4065598
  32.3636808  31.0694131  36.0837288  32.3957594  33.1601927  38.6823481
  33.0411034  32.6626402  39.1898646  30.0267594  32.1961927  35.9373481
  29.2057594  31.3621927  36.3283481  30.3167594  32.3781927  34.6503481
  30.9585799  33.1035713  34.3640062  29.6867594  31.5671927  33.6183481
  28.6105645  31.5286338  33.7869211  29.9427594  32.1601927  32.2363481
  29.7250997  33.2276183  32.2727645  30.9912584  32.0123290  31.9777243
  29.0787594  31.5231927  31.1523481  28.2517594  30.6511927  31.4203481
  29.2767594  31.9601927  29.9143481  28.7344970  31.5761200  29.1537303
  29.9687300  32.6746844  29.7389085  30.2237594  30.1461927  33.6943481
  31.4307594  29.9171927  33.5793481  29.3187594  29.1981927  33.9133481
  28.3582944  29.4688391  34.0694148  29.6567594  27.7841927  33.9803481
  30.6864854  27.6270729  33.6592921  29.5007594  27.2451927  35.4123481
  29.6334801  26.1634107  35.3971087  30.5267594  27.8661927  36.3363481
  30.3943606  28.9480021  36.3524684  30.3967631  27.4697136  37.3433267
  31.5288907  27.6285969  35.9794408  28.1097594  27.5541927  35.9253481
  27.3702424  27.0814072  35.2790583  28.0027229  27.1709210  36.9401120
  27.9537314  28.6329672  35.9266220  28.7557594  27.0251927  33.0183481
  28.6227594  25.7981927  33.1073481  28.1437594  27.7431927  32.0803481
  28.3451994  28.7264162  31.9672429  27.1717594  27.1351927  31.1953481
  26.5811572  26.4360780  31.7874012  26.5260587  27.9298814  30.8216640
  27.7757594  26.3971927  30.0193481  28.7857594  25.7071927  30.1633481
  27.1707594  26.5461927  28.8443481  26.3735267  27.1591306  28.7503984
  27.6027594  25.7901927  27.6753481  28.0126257  24.8284336  27.9837767
  26.4187594  25.5401927  26.7463481  25.6550145  24.9809907  27.2867980
  26.0090526  26.4985177  26.4272032  26.8287594  24.8021927  25.6123481
  26.0742722  24.6528029  25.0378644  28.7137594  26.4901927  26.9093481
  29.6087594  25.8281927  26.3733481  28.6647594  27.8181927  26.8423481
  27.8958832  28.3308872  27.2498689  29.6807594  28.5631927  26.1093481
  29.8902230  28.0753453  25.1573875  29.1837594  29.9811927  25.8323481
  28.1830803  29.8929495  25.4093190  29.1278535  30.4942687  26.7924146
  30.0647594  30.7751927  24.8853481  31.0421505  30.8980225  25.3519533
  30.1724035  30.2055989  23.9622676  29.4797594  32.1381927  24.5723481
  28.5015900  32.0042644  24.1104533  29.3686059  32.6959878  25.5021917
  30.3847594  32.9071927  23.6263481  31.3614942  33.0062382  24.0999300
  30.4836661  32.3276316  22.7085107  29.8507594  34.2581927  23.3043481
  29.7594401  34.7955384  24.1546540  30.4845025  34.7293970  22.6747163
  28.9458877  34.1666215  22.8651203  31.0057594  28.5841927  26.8573481
  32.0707594  28.5971927  26.2293481  30.9677594  28.5521927  28.1853481
  30.0767522  28.5116736  28.6592297  32.1757594  28.6581927  28.9933481
  32.8598171  29.3555309  28.5097330  31.8307594  29.1951927  30.3773481
  31.1535008  28.5030788  30.8777472  32.7428294  29.2990340  30.9650943
  31.3488589  30.1680629  30.2804216  32.8987594  27.3131927  29.0783481
  32.6037594  26.3651927  28.3453481  33.8627594  27.2271927  29.9903481
  34.0173469  28.0113563  30.6078346  34.7057594  26.0461927  30.1473481
  35.0949381  25.7313902  29.1790824  35.8797594  26.3681927  31.0623481
  35.5133055  26.6736811  32.0423928  36.5204976  25.4931429  31.1711707
  36.7517594  27.4781927  30.5663481  37.7277594  27.2391927  29.6193481
  37.8570882  26.2286226  29.2318922  38.5357594  28.2631927  29.1623481
  39.3035800  28.0623669  28.4152061  38.3687594  29.5431927  29.6543481
  39.0026303  30.3540927  29.2955322  37.3977594  29.7941927  30.6013481
  37.2635849  30.8022547  30.9936598  36.5947594  28.7651927  31.0523481
  35.8260480  28.9612738  31.7998339  33.8127594  24.9831927  30.7663481
  32.6147594  25.2341927  31.5053481  34.3537594  23.7091927  30.4963481
  35.2082128  23.6257987  29.9643172  33.8867787  22.8801316  30.8350020
  28.0770113  19.4802753  31.0274083  17.8400113  44.1673833  44.2746493
  34.4808553  22.7062753  23.4484083  50.6258553  36.4223833  68.1858903
  48.3598553  32.8042753  27.2614083  26.3580113  58.0644913  39.6496493
  23.8460113  38.5353833  65.2308903  17.4020113  21.3552753  20.0944083
  43.3908553  44.8423833  53.3106493  28.6090113  39.4823833  14.9301673
  28.6090113  21.0042753  71.9488903  23.9640113  18.8682753  38.4526493
  22.1450113  54.5944913  55.0618903  45.2188553  21.4052753  29.8564083
  35.9548553  34.3812753  76.7531313  13.6751673  33.0722753  51.4486493
  48.2838553  27.5322753  49.7196493  34.1688553  49.5923833  30.9594083
  39.5668553  13.9071673  64.7348903  32.8988553  29.2422753  74.3991313
  43.9938553  25.7472753  56.6548903  25.6100113  51.3593833  34.9904083
  36.5728553  19.2242753  70.2088903  46.5368553  28.9862753  32.5534083
  21.7730113  18.2132753  26.8344083  18.7180113  47.7693833  51.0186493
  34.6238553  40.4483833  27.0524083  45.2228553  39.5863833  58.6558903
  32.3880113  19.9612753  36.2326493  20.0510113  34.3462753  58.3278903
  25.6100113  32.8812753  15.9841673  47.2458553  16.9801673  56.8508903
  42.4828553  23.1452753  22.2504083  24.8100113  56.0014913  49.5676493
  20.8760113  64.3854913  47.9376493  23.8460113  20.0572753  65.2308903
  44.9768553  35.1192753  71.2648903  14.1160113  38.3303833  44.8466493
  38.9551673  25.1871673  64.2101673  25.6940113  19.4002753  33.3634083
  44.0148553  27.3382753  49.3196493  27.1010113  43.0513833  15.0061673
  24.8100113  37.5233833  68.5738903  62.3256993  61.8284913  83.6291313
  61.8016993  62.4244913  83.9921313  62.7226993  61.4604913  84.3131313
  62.3066993  61.8624913  83.7841313  52.1946993  65.9684913  79.0851313
  51.7536993  66.0864913  79.8281313  51.9116993  65.1934913  78.8001313
  52.0876993  65.8714913  79.1531313  51.9376993  59.7604913  75.5921313
  51.1596993  59.9224913  75.2321313  51.9766993  58.8894913  75.6141313
  51.8286993  59.6554913  75.5421313  55.0766993  65.0234913  74.2641313
  54.6846993  64.6524913  73.5781313  54.9966993  64.4254913  74.8931313
  55.0066993  64.8804913  74.2551313  54.7036993  66.6644913  78.1641313
  55.3116993  66.4944913  78.7671313  53.9526993  66.5244913  78.5851313
  54.6826993  66.6184913  78.3151313  58.9856993  55.9994913  78.1131313
  58.9156993  56.6764913  77.5671313  59.7266993  55.6114913  77.8641313
  59.0846993  56.0424913  77.9951313  52.1346993  68.7034913  85.3401313
  52.2636993  68.4234913  86.1561313  51.5246993  68.1624913  85.0311313
  52.0636993  68.5824913  85.4151313  53.5806993  63.2244913  79.5421313
  53.1186993  62.8324913  78.9151313  54.2806993  62.7114913  79.6341313
  53.6156993  63.0914913  79.4631313  58.0886993  58.8344913  84.8891313
  58.7666993  58.8524913  84.3401313  58.0436993  57.9984913  85.1341313
  58.1816993  58.7134913  84.8441313  55.5816993  61.3244913  79.5651313
  56.3986993  61.1374913  79.8081313  55.1046993  60.7104913  79.9611313
  55.6316993  61.2064913  79.6601313  59.7856993  67.3054913  82.1751313
  60.1336993  66.5064913  82.2051313  60.4506993  67.8094913  81.9201313
  59.9356993  67.2614913  82.1421313  59.8426993  66.7544913  78.3861313
  60.1736993  66.1104913  78.8721313  60.0826993  66.5434913  77.5751313
  59.9266993  66.6284913  78.3381313  56.1786993  56.4184913  78.8311313
  55.8826993  56.9194913  78.1811313  57.0456993  56.4964913  78.7741313
  56.2626993  56.5044913  78.7271313  59.1576993  55.5604913  81.0541313
  59.2306993  56.4204913  81.1831313  59.1196993  55.4854913  80.1861313
  59.1626993  55.6764913  80.9451313  52.0366993  60.9854913  82.5551313
  51.7806993  61.8164913  82.4801313  51.3726993  60.6024913  82.9721313
  51.9006993  61.0514913  82.6061313  57.7866993  68.5394913  77.9351313
  57.2076993  68.2644913  78.5271313  58.4106993  67.9304913  77.9601313
  57.7936993  68.4094913  78.0261313  55.0656993  55.8024913  83.0461313
  54.5446993  55.1744913  82.7381313  55.6566993  55.3654913  83.5171313
  55.0766993  55.6444913  83.0701313  54.3096993  67.8524913  81.8861313
  54.7326993  67.4964913  81.2121313  54.6336993  67.4304913  82.5781313
  54.4196993  67.7374913  81.8891313  61.3476993  60.1014913  79.2691313
  61.6346993  59.8694913  78.4791313  62.0796993  60.1804913  79.7381313
  61.4976993  60.0784913  79.2221313  62.0696993  60.4404913  74.3901313
  62.3506993  61.2284913  74.6391313  61.2936993  60.6054913  74.0271313
  61.9966993  60.5814913  74.3731313  60.9286993  68.6114913  74.2061313
  60.7476993  69.1564913  74.8631313  61.6946993  68.9014913  73.9051313
  61.0146993  68.7354913  74.2591313  52.3896993  57.6754913  77.8291313
  52.2756993  56.8114913  77.8601313  51.9146993  57.9694913  78.4991313
  52.3026993  57.5914913  77.9321313  61.6936993  58.8834913  76.5741313
  61.1856993  58.2214913  76.3201313  61.7456993  59.3874913  75.8641313
  61.6266993  58.8604913  76.4321313  61.6936993  55.8244913  76.4651313
  61.2386993  55.4224913  75.8391313  62.4666993  55.9794913  76.0901313
  61.7406993  55.7884913  76.3171313  60.2916993  58.1914913  80.9871313
  60.3656993  58.7594913  80.3291313  60.4126993  58.6834913  81.6971313
  60.3196993  58.3484913  80.9951313  54.8996993  54.0144913  79.3351313
  55.4356993  54.7024913  79.3251313  54.9026993  53.7404913  78.5071313
  54.9786993  54.0754913  79.2111313  57.8556993  64.4474913  83.3601313
  58.0276993  64.2374913  84.1891313  57.2006993  63.9134913  83.1441313
  57.7846993  64.3374913  83.4511313  58.6056993  64.3854913  85.9501313
  58.6586993  65.2324913  86.1521313  58.3206993  64.0154913  86.6871313
  58.5716993  64.4554913  86.0881313  55.3476993  57.8244913  80.9891313
  55.6196993  57.3944913  80.2811313  55.1716993  57.1884913  81.5601313
  55.3616993  57.6674913  80.9691313  55.1716993  65.2514913  80.5381313
  56.0226993  65.1714913  80.3651313  54.8146993  64.5694913  80.1261313
  55.2446993  65.1384913  80.4511313  53.4886993  58.9264913  84.0711313
  54.3316993  59.1464913  84.0281313  53.0996993  59.4994913  83.5401313
  53.5556993  59.0434913  83.9861313  57.5396993  65.2584913  78.7731313
  58.2526993  65.7534913  78.8631313  57.7616993  64.6914913  78.1471313
  57.6776993  65.2474913  78.6941313  51.6956993  66.9014913  82.0931313
  51.0286993  67.3894913  82.3691313  52.3756993  67.4464913  82.1221313
  51.6976993  67.0534913  82.1381313  51.7616993  63.5854913  77.1961313
  51.5766993  62.7464913  77.3481313  52.4206993  63.5494913  76.6261313
  51.8316993  63.4564913  77.1341313  62.0626993  68.9614913  81.1001313
  61.5396993  69.5954913  80.8071313  62.3726993  68.5974913  80.3711313
  62.0306993  69.0014913  80.9491313  51.9336993  67.7494913  76.7711313
  52.4856993  68.3184913  77.1351313  51.7016993  67.2344913  77.4361313
  51.9806993  67.7574913  76.9231313  56.1376993  66.7494913  83.8601313
  56.6046993  67.0384913  84.5381313  56.7096993  66.2714913  83.4061313
  56.2916993  66.7214913  83.8931313  51.7636993  66.1984913  74.3991313
  52.5196993  65.7664913  74.4571313  51.7786993  66.7304913  75.0901313
  51.8776993  66.2134913  74.5101313  52.7036993  64.4194913  82.4041313
  53.1346993  64.2904913  81.6571313  52.4986993  65.2674913  82.3781313
  52.7366993  64.5254913  82.2901313  59.0496993  57.9834913  76.0541313
  59.0476993  57.8664913  75.1891313  58.8686993  58.8314913  76.1461313
  59.0226993  58.0914913  75.9401313  56.7876993  67.9354913  80.6861313
  56.9136993  68.7784913  80.8731313  57.4556993  67.5364913  81.0821313
  56.9056993  68.0014913  80.7721313  55.4026993  60.8154913  75.6881313
  55.2746993  60.3674913  76.4261313  54.8206993  60.4734913  75.1361313
  55.2976993  60.6984913  75.7161313  55.5696993  62.6454913  82.2871313
  54.7886993  62.5864913  81.9041313  55.6416993  61.8934913  82.7241313
  55.4646993  62.5264913  82.2951313  55.9996993  62.3824913  85.7551313
  56.0246993  61.7074913  85.2041313  55.3536993  62.8784913  85.4431313
  55.9086993  62.3554913  85.6281313  60.6696993  59.5344913  83.3871313
  61.1496993  60.2334913  83.5951313  61.0426993  58.8874913  83.8381313
  60.7956993  59.5424913  83.4841313  62.8586993  62.7034913  75.6611313
  62.8506993  63.4254913  75.1711313  62.2196993  62.8384913  76.2381313
  62.7636993  62.8304913  75.6741313  57.4516993  55.0454913  75.3221313
  57.5486993  54.9384913  76.1831313  56.7436993  55.5514913  75.2571313
  57.3616993  55.1044913  75.4401313  54.5736993  63.3524913  76.5651313
  54.8976993  62.5734913  76.3431313  55.2196993  63.7204913  77.0201313
  54.7166993  63.2914913  76.5991313  51.5706993  55.0134913  77.5331313
  51.6996993  54.3054913  77.0411313  51.2036993  54.6954913  78.2581313
  51.5356993  54.8614913  77.5681313  61.2636993  62.6944913  77.9901313
  61.3226993  63.3444913  78.5691313  61.0746993  61.9984913  78.4811313
  61.2446993  62.6874913  78.1481313  55.7596993  57.2114913  74.5021313
  55.2486993  57.2644913  73.7961313  56.5436993  57.4514913  74.2061313
  55.7996993  57.2544913  74.3541313  60.4866993  64.7414913  82.4211313
  59.6396993  64.5474913  82.5021313  60.8106993  64.5764913  83.2141313
  60.4086993  64.6884913  82.5501313  54.3346993  64.4344913  84.7371313
  55.0566993  64.9224913  84.7001313  54.0646993  64.4044913  83.9081313
  54.4016993  64.5024913  84.6091313  57.5646993  59.6054913  81.4721313
  58.4106993  59.4154913  81.5701313  57.1946993  58.8284913  81.3341313
  57.6346993  59.4624913  81.4661313  52.3856993  60.9434913  78.1271313
  52.8746993  60.6514913  78.7881313  52.5146993  60.3504913  77.5001313
  52.4766993  60.8124913  78.1321313  56.9106993  62.3774913  73.6131313
  56.3006993  61.9724913  74.0871313  56.5246993  62.4954913  72.8401313
  56.7636993  62.3344913  73.5691313  58.3656993  60.8384913  76.3231313
  58.6376993  61.6644913  76.3901313  57.5026993  60.9134913  76.2271313
  58.2786993  60.9714913  76.3181313  51.8456993  56.8084913  82.8591313
  51.8896993  57.1524913  82.0581313  52.6006993  57.0454913  83.2261313
  51.9636993  56.8944913  82.7951313  58.4686993  67.2974913  85.6331313
  58.1706993  67.8894913  86.2001313  58.5236993  67.7394913  84.8841313
  58.4326993  67.4504913  85.6061313  60.9846993  63.7204913  85.1241313
  61.4606993  64.0944913  85.7521313  60.1616993  63.8544913  85.3831313
  60.9336993  63.7954913  85.2551313  59.4466993  55.1314913  87.7451313
  60.1516993  55.4514913  87.3431313  59.6876993  54.3244913  87.9721313
  59.5856993  55.0594913  87.7191313  60.0256993  64.1174913  73.6561313
  59.2206993  63.9404913  73.3711313  59.9926993  64.9684913  73.8481313
  59.9016993  64.2164913  73.6431313  55.9556993  60.1844913  83.8061313
  56.3956993  60.0814913  83.0601313  56.5006993  59.8714913  84.4111313
  56.1006993  60.1234913  83.7851313  59.5026993  55.1694913  83.8531313
  58.6766993  55.0204913  84.0901313  59.4626993  55.2044913  82.9821313
  59.3746993  55.1524913  83.7591313  55.1316993  58.3114913  77.1131313
  55.2576993  57.9824913  76.3151313  54.3196993  58.0624913  77.3121313
  55.0306993  58.2264913  77.0251313  61.4106993  64.7384913  79.7221313
  61.1126993  64.4234913  80.4791313  62.1056993  65.2114913  79.9571313
  61.4696993  64.7614913  79.8691313  62.0406993  66.7844913  85.1821313
  61.3466993  67.1864913  85.5251313  62.7176993  67.2174913  85.5211313
  62.0376993  66.9074913  85.2831313  55.1086993  60.3224913  87.5291313
  55.4836993  60.9414913  87.0421313  55.7826993  59.8484913  87.8141313
  55.2636993  60.3444913  87.4991313  52.8836993  58.7704913  86.8041313
  52.9606993  58.6014913  85.9511313  53.6296993  59.1764913  87.0011313
  53.0046993  58.8054913  86.7071313  62.3626993  68.3754913  78.3511313
  62.1576993  69.2084913  78.1921313  61.5876993  67.9934913  78.4731313
  62.2176993  68.4424913  78.3461313  52.2806993  63.9964913  87.0281313
  52.6006993  64.2154913  86.2471313  52.1806993  63.1314913  86.9731313
  52.3126993  63.9014913  86.9051313  53.7366993  59.9324913  73.6461313
  53.0646993  59.9464913  74.2021313  53.8316993  59.0844913  73.4621313
  53.6516993  59.8094913  73.7011313  62.4176993  56.5464913  81.2361313
  61.7176993  57.0644913  81.1801313  62.4556993  56.1664913  80.4521313
  62.3196993  56.5674913  81.1121313  57.7246993  68.6374913  74.7601313
  58.1656993  68.7174913  75.5081313  56.9196993  68.4214913  75.0181313
  57.6706993  68.6174913  74.9091313  55.0536993  67.7074913  75.3611313
  54.8096993  67.4004913  76.1411313  55.0206993  67.0044913  74.8451313
  55.0126993  67.5584913  75.4001313  57.8726993  65.9524913  74.1041313
  57.0546993  65.6844913  74.2441313  57.8446993  66.8044913  74.2891313
  57.7476993  66.0394913  74.1521313  57.4726993  56.2654913  85.8631313
  56.6086993  56.3494913  85.9431313  57.6926993  55.7514913  86.5321313
  57.3776993  56.2024913  85.9741313  61.5756993  57.0134913  84.2371313
  60.8386993  56.5594913  84.3501313  62.1466993  56.6114913  84.7601313
  61.5506993  56.8864913  84.3311313  59.8746993  54.5944913  74.0681313
  59.9526993  54.8414913  73.2351313  59.1316993  54.9714913  74.3261313
  59.7766993  54.6864913  73.9831313  54.6926993  56.3484913  86.5111313
  54.3496993  55.5814913  86.2771313  53.9976993  56.8724913  86.5751313
  54.5396993  56.3124913  86.4861313  53.3456993  59.6624913  80.4671313
  52.9776993  59.9644913  81.1981313  53.8796993  59.0334913  80.7511313
  53.3696993  59.6144913  80.6171313  58.9866993  63.7344913  76.4811313
  59.0866993  63.8734913  75.6261313  59.8046993  63.6744913  76.7771313
  59.1216993  63.7454913  76.3981313  61.1076993  66.2714913  75.7131313
  61.8246993  65.9244913  75.3571313  61.0736993  67.0714913  75.3651313
  61.2086993  66.3384913  75.6091313  62.3256993  61.8284913  64.6228903
  61.8016993  62.4244913  64.9858903  62.7226993  61.4604913  65.3068903
  62.3066993  61.8624913  64.7778903  52.1946993  65.9684913  60.0788903
  51.7536993  66.0864913  60.8218903  51.9116993  65.1934913  59.7938903
  52.0876993  65.8714913  60.1468903  51.9376993  59.7604913  56.5858903
  51.1596993  59.9224913  56.2258903  51.9766993  58.8894913  56.6078903
  51.8286993  59.6554913  56.5358903  55.0766993  65.0234913  55.2578903
  54.6846993  64.6524913  54.5718903  54.9966993  64.4254913  55.8868903
  55.0066993  64.8804913  55.2488903  54.7036993  66.6644913  59.1578903
  55.3116993  66.4944913  59.7608903  53.9526993  66.5244913  59.5788903
  54.6826993  66.6184913  59.3088903  58.9856993  55.9994913  59.1068903
  58.9156993  56.6764913  58.5608903  59.7266993  55.6114913  58.8578903
  59.0846993  56.0424913  58.9888903  52.1346993  68.7034913  66.3338903
  52.2636993  68.4234913  67.1498903  51.5246993  68.1624913  66.0248903
  52.0636993  68.5824913  66.4088903  58.7086993  66.2284913  71.4008903
  58.4726993  66.2254913  72.2408903  57.9606993  66.0804913  70.9768903
  58.5626993  66.2054913  71.4618903  53.5806993  63.2244913  60.5358903
  53.1186993  62.8324913  59.9088903  54.2806993  62.7114913  60.6278903
  53.6156993  63.0914913  60.4568903  58.0886993  58.8344913  65.8828903
  58.7666993  58.8524913  65.3338903  58.0436993  57.9984913  66.1278903
  58.1816993  58.7134913  65.8378903  55.5816993  61.3244913  60.5588903
  56.3986993  61.1374913  60.8018903  55.1046993  60.7104913  60.9548903
  55.6316993  61.2064913  60.6538903  59.7856993  67.3054913  63.1688903
  60.1336993  66.5064913  63.1988903  60.4506993  67.8094913  62.9138903
  59.9356993  67.2614913  63.1358903  59.8426993  66.7544913  59.3798903
  60.1736993  66.1104913  59.8658903  60.0826993  66.5434913  58.5688903
  59.9266993  66.6284913  59.3318903  61.8106993  60.8854913  70.7188903
  60.9626993  60.7864913  70.5408903  61.8396993  61.6304913  71.1728903
  61.6896993  60.9814913  70.7598903  56.1786993  56.4184913  59.8248903
  55.8826993  56.9194913  59.1748903  57.0456993  56.4964913  59.7678903
  56.2626993  56.5044913  59.7208903  59.1576993  55.5604913  62.0478903
  59.2306993  56.4204913  62.1768903  59.1196993  55.4854913  61.1798903
  59.1626993  55.6764913  61.9388903  52.0366993  60.9854913  63.5488903
  51.7806993  61.8164913  63.4738903  51.3726993  60.6024913  63.9658903
  51.9006993  61.0514913  63.5998903  57.7866993  68.5394913  58.9288903
  57.2076993  68.2644913  59.5208903  58.4106993  67.9304913  58.9538903
  57.7936993  68.4094913  59.0198903  55.0656993  55.8024913  64.0398903
  54.5446993  55.1744913  63.7318903  55.6566993  55.3654913  64.5108903
  55.0766993  55.6444913  64.0638903  58.3716993  57.9354913  73.3378903
  58.4886993  57.4814913  72.6018903  58.6596993  58.7334913  73.1348903
  58.4316993  57.9864913  73.1988903  54.1046993  57.5324913  72.3218903
  53.3266993  57.1424913  72.2498903  54.5956993  57.1204913  71.7308903
  54.0616993  57.4134913  72.2238903  54.3096993  67.8524913  62.8798903
  54.7326993  67.4964913  62.2058903  54.6336993  67.4304913  63.5718903
  54.4196993  67.7374913  62.8828903  60.7536993  55.1754913  71.4898903
  60.9316993  54.3664913  71.2148903  60.6106993  55.6164913  70.7508903
  60.7586993  55.1214913  71.3398903  61.3476993  60.1014913  60.2628903
  61.6346993  59.8694913  59.4728903  62.0796993  60.1804913  60.7318903
  61.4976993  60.0784913  60.2158903  62.0696993  60.4404913  55.3838903
  62.3506993  61.2284913  55.6328903  61.2936993  60.6054913  55.0208903
  61.9966993  60.5814913  55.3668903  51.4526993  58.0804913  69.9078903
  51.4486993  58.6674913  70.5538903  52.0466993  58.3924913  69.3508903
  51.5396993  58.2134913  69.9208903  60.9286993  68.6114913  55.1998903
  60.7476993  69.1564913  55.8568903  61.6946993  68.9014913  54.8988903
  61.0146993  68.7354913  55.2528903  52.3896993  57.6754913  58.8228903
  52.2756993  56.8114913  58.8538903  51.9146993  57.9694913  59.4928903
  52.3026993  57.5914913  58.9258903  61.6936993  58.8834913  57.5678903
  61.1856993  58.2214913  57.3138903  61.7456993  59.3874913  56.8578903
  61.6266993  58.8604913  57.4258903  61.6936993  55.8244913  57.4588903
  61.2386993  55.4224913  56.8328903  62.4666993  55.9794913  57.0838903
  61.7406993  55.7884913  57.3108903  60.2916993  58.1914913  61.9808903
  60.3656993  58.7594913  61.3228903  60.4126993  58.6834913  62.6908903
  60.3196993  58.3484913  61.9888903  55.8926993  68.9364913  69.6048903
  56.7336993  68.9994913  69.3828903  55.8556993  69.3334913  70.3808903
  56.0116993  69.0044913  69.6868903  54.8996993  54.0144913  60.3288903
  55.4356993  54.7024913  60.3188903  54.9026993  53.7404913  59.5008903
  54.9786993  54.0754913  60.2048903  57.8556993  64.4474913  64.3538903
  58.0276993  64.2374913  65.1828903  57.2006993  63.9134913  64.1378903
  57.7846993  64.3374913  64.4448903  58.6056993  64.3854913  66.9438903
  58.6586993  65.2324913  67.1458903  58.3206993  64.0154913  67.6808903
  58.5716993  64.4554913  67.0818903  51.4266993  68.7564913  73.1548903
  52.1826993  69.1054913  73.4128903  51.6036993  67.9034913  73.0978903
  51.5646993  68.6814913  73.1848903  55.3476993  57.8244913  61.9828903
  55.6196993  57.3944913  61.2748903  55.1716993  57.1884913  62.5538903
  55.3616993  57.6674913  61.9628903  55.1716993  65.2514913  61.5318903
  56.0226993  65.1714913  61.3588903  54.8146993  64.5694913  61.1198903
  55.2446993  65.1384913  61.4448903  53.4886993  58.9264913  65.0648903
  54.3316993  59.1464913  65.0218903  53.0996993  59.4994913  64.5338903
  53.5556993  59.0434913  64.9798903  57.5396993  65.2584913  59.7668903
  58.2526993  65.7534913  59.8568903  57.7616993  64.6914913  59.1408903
  57.6776993  65.2474913  59.6878903  51.6956993  66.9014913  63.0868903
  51.0286993  67.3894913  63.3628903  52.3756993  67.4464913  63.1158903
  51.6976993  67.0534913  63.1318903  59.3426993  60.6114913  73.1828903
  58.8586993  61.1884913  73.6248903  59.3146993  60.9064913  72.3618903
  59.2666993  60.7404913  73.1268903  51.7616993  63.5854913  58.1898903
  51.5766993  62.7464913  58.3418903  52.4206993  63.5494913  57.6198903
  51.8316993  63.4564913  58.1278903  62.0626993  68.9614913  62.0938903
  61.5396993  69.5954913  61.8008903  62.3726993  68.5974913  61.3648903
  62.0306993  69.0014913  61.9428903  51.9336993  67.7494913  57.7648903
  52.4856993  68.3184913  58.1288903  51.7016993  67.2344913  58.4298903
  51.9806993  67.7574913  57.9168903  56.1376993  66.7494913  64.8538903
  56.6046993  67.0384913  65.5318903  56.7096993  66.2714913  64.3998903
  56.2916993  66.7214913  64.8868903  51.7636993  66.1984913  55.3928903
  52.5196993  65.7664913  55.4508903  51.7786993  66.7304913  56.0838903
  51.8776993  66.2134913  55.5038903  52.7036993  64.4194913  63.3978903
  53.1346993  64.2904913  62.6508903  52.4986993  65.2674913  63.3718903
  52.7366993  64.5254913  63.2838903  59.0496993  57.9834913  57.0478903
  59.0476993  57.8664913  56.1828903  58.8686993  58.8314913  57.1398903
  59.0226993  58.0914913  56.9338903  56.7876993  67.9354913  61.6798903
  56.9136993  68.7784913  61.8668903  57.4556993  67.5364913  62.0758903
  56.9056993  68.0014913  61.7658903  54.9176993  61.4184913  71.5418903
  54.3816993  60.9124913  72.0098903  54.9376993  61.0284913  70.7618903
  54.8406993  61.2854913  71.4958903  55.4026993  60.8154913  56.6818903
  55.2746993  60.3674913  57.4198903  54.8206993  60.4734913  56.1298903
  55.2976993  60.6984913  56.7098903  55.5696993  62.6454913  63.2808903
  54.7886993  62.5864913  62.8978903  55.6416993  61.8934913  63.7178903
  55.4646993  62.5264913  63.2888903  55.9996993  62.3824913  66.7488903
  56.0246993  61.7074913  66.1978903  55.3536993  62.8784913  66.4368903
  55.9086993  62.3554913  66.6218903  62.5396993  56.0014913  68.5738903
  62.6886993  55.1764913  68.3308903  62.9186993  56.0564913  69.3578903
  62.6176993  55.8874913  68.6538903  53.7986993  63.7374913  72.3078903
  53.7616993  64.2384913  71.5938903  54.1296993  62.9854913  72.0128903
  53.8416993  63.6994913  72.1588903  59.6976993  68.7874913  71.7428903
  60.0516993  68.6094913  72.5198903  59.2616993  68.0584913  71.5438903
  59.6856993  68.6534913  71.8288903  60.6696993  59.5344913  64.3808903
  61.1496993  60.2334913  64.5888903  61.0426993  58.8874913  64.8318903
  60.7956993  59.5424913  64.4778903  62.8586993  62.7034913  56.6548903
  62.8506993  63.4254913  56.1648903  62.2196993  62.8384913  57.2318903
  62.7636993  62.8304913  56.6678903  57.4516993  55.0454913  56.3158903
  57.5486993  54.9384913  57.1768903  56.7436993  55.5514913  56.2508903
  57.3616993  55.1044913  56.4338903  54.5736993  63.3524913  57.5588903
  54.8976993  62.5734913  57.3368903  55.2196993  63.7204913  58.0138903
  54.7166993  63.2914913  57.5928903  51.5706993  55.0134913  58.5268903
  51.6996993  54.3054913  58.0348903  51.2036993  54.6954913  59.2518903
  51.5356993  54.8614913  58.5618903  61.2636993  62.6944913  58.9838903
  61.3226993  63.3444913  59.5628903  61.0746993  61.9984913  59.4748903
  61.2446993  62.6874913  59.1418903  55.7596993  57.2114913  55.4958903
  55.2486993  57.2644913  54.7898903  56.5436993  57.4514913  55.1998903
  55.7996993  57.2544913  55.3478903  60.4866993  64.7414913  63.4148903
  59.6396993  64.5474913  63.4958903  60.8106993  64.5764913  64.2078903
  60.4086993  64.6884913  63.5438903  54.3346993  64.4344913  65.7308903
  55.0566993  64.9224913  65.6938903  54.0646993  64.4044913  64.9018903
  54.4016993  64.5024913  65.6028903  57.5646993  59.6054913  62.4658903
  58.4106993  59.4154913  62.5638903  57.1946993  58.8284913  62.3278903
  57.6346993  59.4624913  62.4598903  52.3856993  60.9434913  59.1208903
  52.8746993  60.6514913  59.7818903  52.5146993  60.3504913  58.4938903
  52.4766993  60.8124913  59.1258903  56.9106993  62.3774913  54.6068903
  56.3006993  61.9724913  55.0808903  56.5246993  62.4954913  53.8338903
  56.7636993  62.3344913  54.5628903  53.7296993  65.4864913  70.0088903
  53.3086993  64.9684913  69.4478903  53.3776993  66.2724913  69.8658903
  53.6156993  65.5264913  69.9048903  58.3656993  60.8384913  57.3168903
  58.6376993  61.6644913  57.3838903  57.5026993  60.9134913  57.2208903
  58.2786993  60.9714913  57.3118903  51.8456993  56.8084913  63.8528903
  51.8896993  57.1524913  63.0518903  52.6006993  57.0454913  64.2198903
  51.9636993  56.8944913  63.7888903  58.4686993  67.2974913  66.6268903
  58.1706993  67.8894913  67.1938903  58.5236993  67.7394913  65.8778903
  58.4326993  67.4504913  66.5998903  56.4476993  66.2474913  70.0248903
  55.6416993  65.9574913  70.1918903  56.3586993  67.1154913  70.0308903
  56.3156993  66.3324913  70.0498903  60.9846993  63.7204913  66.1178903
  61.4606993  64.0944913  66.7458903  60.1616993  63.8544913  66.3768903
  60.9336993  63.7954913  66.2488903  57.6946993  59.3234913  68.8588903
  57.8556993  58.5794913  69.2858903  57.6496993  59.0744913  68.0238903
  57.7116993  59.1764913  68.7988903  59.4466993  55.1314913  68.7388903
  60.1516993  55.4514913  68.3368903  59.6876993  54.3244913  68.9658903
  59.5856993  55.0594913  68.7128903  60.0256993  64.1174913  54.6498903
  59.2206993  63.9404913  54.3648903  59.9926993  64.9684913  54.8418903
  59.9016993  64.2164913  54.6368903  55.9556993  60.1844913  64.7998903
  56.3956993  60.0814913  64.0538903  56.5006993  59.8714913  65.4048903
  56.1006993  60.1234913  64.7788903  59.5026993  55.1694913  64.8468903
  58.6766993  55.0204913  65.0838903  59.4626993  55.2044913  63.9758903
  59.3746993  55.1524913  64.7528903  61.1436993  66.2094913  69.6348903
  60.3486993  66.1454913  69.9858903  61.2146993  67.0564913  69.4398903
  61.0366993  66.3244913  69.6578903  52.0676993  55.5674913  70.8818903
  51.9276993  56.3624913  70.5508903  51.2816993  55.3244913  71.1708903
  51.9306993  55.6494913  70.8758903  55.1316993  58.3114913  58.1068903
  55.2576993  57.9824913  57.3088903  54.3196993  58.0624913  58.3058903
  55.0306993  58.2264913  58.0188903  61.4106993  64.7384913  60.7158903
  61.1126993  64.4234913  61.4728903  62.1056993  65.2114913  60.9508903
  61.4696993  64.7614913  60.8628903  61.6326993  68.8564913  68.7428903
  62.3196993  68.7424913  69.2678903  61.7666993  69.6474913  68.3988903
  61.7536993  68.9564913  68.7698903  62.2556993  63.3204913  72.3168903
  62.5786993  64.0064913  71.8848903  61.5516993  63.6434913  72.7188903
  62.1986993  63.4694913  72.3118903  62.0406993  66.7844913  66.1758903
  61.3466993  67.1864913  66.5188903  62.7176993  67.2174913  66.5148903
  62.0376993  66.9074913  66.2768903  55.1086993  60.3224913  68.5228903
  55.4836993  60.9414913  68.0358903  55.7826993  59.8484913  68.8078903
  55.2636993  60.3444913  68.4928903  52.8836993  58.7704913  67.7978903
  52.9606993  58.6014913  66.9448903  53.6296993  59.1764913  67.9948903
  53.0046993  58.8054913  67.7008903  55.4376993  56.1804913  70.2088903
  55.3566993  55.3364913  70.4148903  55.1236993  56.2244913  69.3958903
  55.3796993  56.0624913  70.1188903  62.3626993  68.3754913  59.3448903
  62.1576993  69.2084913  59.1858903  61.5876993  67.9934913  59.4668903
  62.2176993  68.4424913  59.3398903  52.2806993  63.9964913  68.0218903
  52.6006993  64.2154913  67.2408903  52.1806993  63.1314913  67.9668903
  52.3126993  63.9014913  67.8988903  53.7366993  59.9324913  54.6398903
  53.0646993  59.9464913  55.1958903  53.8316993  59.0844913  54.4558903
  53.6516993  59.8094913  54.6948903  62.4176993  56.5464913  62.2298903
  61.7176993  57.0644913  62.1738903  62.4556993  56.1664913  61.4458903
  62.3196993  56.5674913  62.1058903  57.7246993  68.6374913  55.7538903
  58.1656993  68.7174913  56.5018903  56.9196993  68.4214913  56.0118903
  57.6706993  68.6174913  55.9028903  57.0436993  63.2884913  69.4068903
  56.6476993  64.0624913  69.4818903  56.6376993  62.9154913  68.7308903
  56.9256993  63.3474913  69.3178903  55.0536993  67.7074913  56.3548903
  54.8096993  67.4004913  57.1348903  55.0206993  67.0044913  55.8388903
  55.0126993  67.5584913  56.3938903  57.8726993  65.9524913  55.0978903
  57.0546993  65.6844913  55.2378903  57.8446993  66.8044913  55.2828903
  57.7476993  66.0394913  55.1458903  57.4726993  56.2654913  66.8568903
  56.6086993  56.3494913  66.9368903  57.6926993  55.7514913  67.5258903
  57.3776993  56.2024913  66.9678903  61.5756993  57.0134913  65.2308903
  60.8386993  56.5594913  65.3438903  62.1466993  56.6114913  65.7538903
  61.5506993  56.8864913  65.3248903  59.0786993  61.3424913  70.4348903
  58.7566993  60.7664913  69.8648903  58.7196993  62.0974913  70.1888903
  58.9786993  61.3684913  70.3148903  59.8746993  54.5944913  55.0618903
  59.9526993  54.8414913  54.2288903  59.1316993  54.9714913  55.3198903
  59.7766993  54.6864913  54.9768903  54.6926993  56.3484913  67.5048903
  54.3496993  55.5814913  67.2708903  53.9976993  56.8724913  67.5688903
  54.5396993  56.3124913  67.4798903  53.3456993  59.6624913  61.4608903
  52.9776993  59.9644913  62.1918903  53.8796993  59.0334913  61.7448903
  53.3696993  59.6144913  61.6108903  53.0336993  68.0704913  68.9718903
  52.4596993  68.4864913  69.4808903  53.7666993  68.5354913  69.0668903
  53.0576993  68.2004913  69.0608903  58.9866993  63.7344913  57.4748903
  59.0866993  63.8734913  56.6198903  59.8046993  63.6744913  57.7708903
  59.1216993  63.7454913  57.3918903  58.1256993  56.7094913  70.5908903
  58.3596993  56.1334913  69.9778903  57.2836993  56.5284913  70.7318903
  58.0356993  56.5974913  70.5208903  61.1076993  66.2714913  56.7068903
  61.8246993  65.9244913  56.3508903  61.0736993  67.0714913  56.3588903
  61.2086993  66.3384913  56.6028903  62.3256993  61.8284913  45.6166493
  61.8016993  62.4244913  45.9796493  62.7226993  61.4604913  46.3006493
  62.3066993  61.8624913  45.7716493  52.1946993  65.9684913  41.0726493
  51.7536993  66.0864913  41.8156493  51.9116993  65.1934913  40.7876493
  52.0876993  65.8714913  41.1406493  51.9376993  59.7604913  37.5796493
  51.1596993  59.9224913  37.2196493  51.9766993  58.8894913  37.6016493
  51.8286993  59.6554913  37.5296493  55.0766993  65.0234913  36.2516493
  54.6846993  64.6524913  35.5656493  54.9966993  64.4254913  36.8806493
  55.0066993  64.8804913  36.2426493  54.7036993  66.6644913  40.1516493
  55.3116993  66.4944913  40.7546493  53.9526993  66.5244913  40.5726493
  54.6826993  66.6184913  40.3026493  58.9856993  55.9994913  40.1006493
  58.9156993  56.6764913  39.5546493  59.7266993  55.6114913  39.8516493
  59.0846993  56.0424913  39.9826493  52.1346993  68.7034913  47.3276493
  52.2636993  68.4234913  48.1436493  51.5246993  68.1624913  47.0186493
  52.0636993  68.5824913  47.4026493  58.7086993  66.2284913  52.3946493
  58.4726993  66.2254913  53.2346493  57.9606993  66.0804913  51.9706493
  58.5626993  66.2054913  52.4556493  53.5806993  63.2244913  41.5296493
  53.1186993  62.8324913  40.9026493  54.2806993  62.7114913  41.6216493
  53.6156993  63.0914913  41.4506493  58.0886993  58.8344913  46.8766493
  58.7666993  58.8524913  46.3276493  58.0436993  57.9984913  47.1216493
  58.1816993  58.7134913  46.8316493  55.5816993  61.3244913  41.5526493
  56.3986993  61.1374913  41.7956493  55.1046993  60.7104913  41.9486493
  55.6316993  61.2064913  41.6476493  59.7856993  67.3054913  44.1626493
  60.1336993  66.5064913  44.1926493  60.4506993  67.8094913  43.9076493
  59.9356993  67.2614913  44.1296493  59.8426993  66.7544913  40.3736493
  60.1736993  66.1104913  40.8596493  60.0826993  66.5434913  39.5626493
  59.9266993  66.6284913  40.3256493  61.8106993  60.8854913  51.7126493
  60.9626993  60.7864913  51.5346493  61.8396993  61.6304913  52.1666493
  61.6896993  60.9814913  51.7536493  56.1786993  56.4184913  40.8186493
  55.8826993  56.9194913  40.1686493  57.0456993  56.4964913  40.7616493
  56.2626993  56.5044913  40.7146493  59.1576993  55.5604913  43.0416493
  59.2306993  56.4204913  43.1706493  59.1196993  55.4854913  42.1736493
  59.1626993  55.6764913  42.9326493  52.0366993  60.9854913  44.5426493
  51.7806993  61.8164913  44.4676493  51.3726993  60.6024913  44.9596493
  51.9006993  61.0514913  44.5936493  57.7866993  68.5394913  39.9226493
  57.2076993  68.2644913  40.5146493  58.4106993  67.9304913  39.9476493
  57.7936993  68.4094913  40.0136493  55.0656993  55.8024913  45.0336493
  54.5446993  55.1744913  44.7256493  55.6566993  55.3654913  45.5046493
  55.0766993  55.6444913  45.0576493  58.3716993  57.9354913  54.3316493
  58.4886993  57.4814913  53.5956493  58.6596993  58.7334913  54.1286493
  58.4316993  57.9864913  54.1926493  54.1046993  57.5324913  53.3156493
  53.3266993  57.1424913  53.2436493  54.5956993  57.1204913  52.7246493
  54.0616993  57.4134913  53.2176493  54.3096993  67.8524913  43.8736493
  54.7326993  67.4964913  43.1996493  54.6336993  67.4304913  44.5656493
  54.4196993  67.7374913  43.8766493  60.7536993  55.1754913  52.4836493
  60.9316993  54.3664913  52.2086493  60.6106993  55.6164913  51.7446493
  60.7586993  55.1214913  52.3336493  61.3476993  60.1014913  41.2566493
  61.6346993  59.8694913  40.4666493  62.0796993  60.1804913  41.7256493
  61.4976993  60.0784913  41.2096493  62.0696993  60.4404913  36.3776493
  62.3506993  61.2284913  36.6266493  61.2936993  60.6054913  36.0146493
  61.9966993  60.5814913  36.3606493  51.4526993  58.0804913  50.9016493
  51.4486993  58.6674913  51.5476493  52.0466993  58.3924913  50.3446493
  51.5396993  58.2134913  50.9146493  60.9286993  68.6114913  36.1936493
  60.7476993  69.1564913  36.8506493  61.6946993  68.9014913  35.8926493
  61.0146993  68.7354913  36.2466493  52.3896993  57.6754913  39.8166493
  52.2756993  56.8114913  39.8476493  51.9146993  57.9694913  40.4866493
  52.3026993  57.5914913  39.9196493  61.6936993  58.8834913  38.5616493
  61.1856993  58.2214913  38.3076493  61.7456993  59.3874913  37.8516493
  61.6266993  58.8604913  38.4196493  61.6936993  55.8244913  38.4526493
  61.2386993  55.4224913  37.8266493  62.4666993  55.9794913  38.0776493
  61.7406993  55.7884913  38.3046493  60.2916993  58.1914913  42.9746493
  60.3656993  58.7594913  42.3166493  60.4126993  58.6834913  43.6846493
  60.3196993  58.3484913  42.9826493  55.8926993  68.9364913  50.5986493
  56.7336993  68.9994913  50.3766493  55.8556993  69.3334913  51.3746493
  56.0116993  69.0044913  50.6806493  54.8996993  54.0144913  41.3226493
  55.4356993  54.7024913  41.3126493  54.9026993  53.7404913  40.4946493
  54.9786993  54.0754913  41.1986493  57.8556993  64.4474913  45.3476493
  58.0276993  64.2374913  46.1766493  57.2006993  63.9134913  45.1316493
  57.7846993  64.3374913  45.4386493  58.6056993  64.3854913  47.9376493
  58.6586993  65.2324913  48.1396493  58.3206993  64.0154913  48.6746493
  58.5716993  64.4554913  48.0756493  51.4266993  68.7564913  54.1486493
  52.1826993  69.1054913  54.4066493  51.6036993  67.9034913  54.0916493
  51.5646993  68.6814913  54.1786493  55.3476993  57.8244913  42.9766493
  55.6196993  57.3944913  42.2686493  55.1716993  57.1884913  43.5476493
  55.3616993  57.6674913  42.9566493  55.1716993  65.2514913  42.5256493
  56.0226993  65.1714913  42.3526493  54.8146993  64.5694913  42.1136493
  55.2446993  65.1384913  42.4386493  53.4886993  58.9264913  46.0586493
  54.3316993  59.1464913  46.0156493  53.0996993  59.4994913  45.5276493
  53.5556993  59.0434913  45.9736493  57.5396993  65.2584913  40.7606493
  58.2526993  65.7534913  40.8506493  57.7616993  64.6914913  40.1346493
  57.6776993  65.2474913  40.6816493  51.6956993  66.9014913  44.0806493
  51.0286993  67.3894913  44.3566493  52.3756993  67.4464913  44.1096493
  51.6976993  67.0534913  44.1256493  59.3426993  60.6114913  54.1766493
  58.8586993  61.1884913  54.6186493  59.3146993  60.9064913  53.3556493
  59.2666993  60.7404913  54.1206493  51.7616993  63.5854913  39.1836493
  51.5766993  62.7464913  39.3356493  52.4206993  63.5494913  38.6136493
  51.8316993  63.4564913  39.1216493  62.0626993  68.9614913  43.0876493
  61.5396993  69.5954913  42.7946493  62.3726993  68.5974913  42.3586493
  62.0306993  69.0014913  42.9366493  51.9336993  67.7494913  38.7586493
  52.4856993  68.3184913  39.1226493  51.7016993  67.2344913  39.4236493
  51.9806993  67.7574913  38.9106493  56.1376993  66.7494913  45.8476493
  56.6046993  67.0384913  46.5256493  56.7096993  66.2714913  45.3936493
  56.2916993  66.7214913  45.8806493  51.7636993  66.1984913  36.3866493
  52.5196993  65.7664913  36.4446493  51.7786993  66.7304913  37.0776493
  51.8776993  66.2134913  36.4976493  52.7036993  64.4194913  44.3916493
  53.1346993  64.2904913  43.6446493  52.4986993  65.2674913  44.3656493
  52.7366993  64.5254913  44.2776493  59.0496993  57.9834913  38.0416493
  59.0476993  57.8664913  37.1766493  58.8686993  58.8314913  38.1336493
  59.0226993  58.0914913  37.9276493  56.7876993  67.9354913  42.6736493
  56.9136993  68.7784913  42.8606493  57.4556993  67.5364913  43.0696493
  56.9056993  68.0014913  42.7596493  54.9176993  61.4184913  52.5356493
  54.3816993  60.9124913  53.0036493  54.9376993  61.0284913  51.7556493
  54.8406993  61.2854913  52.4896493  55.4026993  60.8154913  37.6756493
  55.2746993  60.3674913  38.4136493  54.8206993  60.4734913  37.1236493
  55.2976993  60.6984913  37.7036493  55.5696993  62.6454913  44.2746493
  54.7886993  62.5864913  43.8916493  55.6416993  61.8934913  44.7116493
  55.4646993  62.5264913  44.2826493  55.9996993  62.3824913  47.7426493
  56.0246993  61.7074913  47.1916493  55.3536993  62.8784913  47.4306493
  55.9086993  62.3554913  47.6156493  62.5396993  56.0014913  49.5676493
  62.6886993  55.1764913  49.3246493  62.9186993  56.0564913  50.3516493
  62.6176993  55.8874913  49.6476493  53.7986993  63.7374913  53.3016493
  53.7616993  64.2384913  52.5876493  54.1296993  62.9854913  53.0066493
  53.8416993  63.6994913  53.1526493  59.6976993  68.7874913  52.7366493
  60.0516993  68.6094913  53.5136493  59.2616993  68.0584913  52.5376493
  59.6856993  68.6534913  52.8226493  60.6696993  59.5344913  45.3746493
  61.1496993  60.2334913  45.5826493  61.0426993  58.8874913  45.8256493
  60.7956993  59.5424913  45.4716493  62.8586993  62.7034913  37.6486493
  62.8506993  63.4254913  37.1586493  62.2196993  62.8384913  38.2256493
  62.7636993  62.8304913  37.6616493  57.4516993  55.0454913  37.3096493
  57.5486993  54.9384913  38.1706493  56.7436993  55.5514913  37.2446493
  57.3616993  55.1044913  37.4276493  54.5736993  63.3524913  38.5526493
  54.8976993  62.5734913  38.3306493  55.2196993  63.7204913  39.0076493
  54.7166993  63.2914913  38.5866493  51.5706993  55.0134913  39.5206493
  51.6996993  54.3054913  39.0286493  51.2036993  54.6954913  40.2456493
  51.5356993  54.8614913  39.5556493  61.2636993  62.6944913  39.9776493
  61.3226993  63.3444913  40.5566493  61.0746993  61.9984913  40.4686493
  61.2446993  62.6874913  40.1356493  55.7596993  57.2114913  36.4896493
  55.2486993  57.2644913  35.7836493  56.5436993  57.4514913  36.1936493
  55.7996993  57.2544913  36.3416493  60.4866993  64.7414913  44.4086493
  59.6396993  64.5474913  44.4896493  60.8106993  64.5764913  45.2016493
  60.4086993  64.6884913  44.5376493  54.3346993  64.4344913  46.7246493
  55.0566993  64.9224913  46.6876493  54.0646993  64.4044913  45.8956493
  54.4016993  64.5024913  46.5966493  57.5646993  59.6054913  43.4596493
  58.4106993  59.4154913  43.5576493  57.1946993  58.8284913  43.3216493
  57.6346993  59.4624913  43.4536493  52.3856993  60.9434913  40.1146493
  52.8746993  60.6514913  40.7756493  52.5146993  60.3504913  39.4876493
  52.4766993  60.8124913  40.1196493  56.9106993  62.3774913  35.6006493
  56.3006993  61.9724913  36.0746493  56.5246993  62.4954913  34.8276493
  56.7636993  62.3344913  35.5566493  53.7296993  65.4864913  51.0026493
  53.3086993  64.9684913  50.4416493  53.3776993  66.2724913  50.8596493
  53.6156993  65.5264913  50.8986493  58.3656993  60.8384913  38.3106493
  58.6376993  61.6644913  38.3776493  57.5026993  60.9134913  38.2146493
  58.2786993  60.9714913  38.3056493  51.8456993  56.8084913  44.8466493
  51.8896993  57.1524913  44.0456493  52.6006993  57.0454913  45.2136493
  51.9636993  56.8944913  44.7826493  58.4686993  67.2974913  47.6206493
  58.1706993  67.8894913  48.1876493  58.5236993  67.7394913  46.8716493
  58.4326993  67.4504913  47.5936493  56.4476993  66.2474913  51.0186493
  55.6416993  65.9574913  51.1856493  56.3586993  67.1154913  51.0246493
  56.3156993  66.3324913  51.0436493  60.9846993  63.7204913  47.1116493
  61.4606993  64.0944913  47.7396493  60.1616993  63.8544913  47.3706493
  60.9336993  63.7954913  47.2426493  57.6946993  59.3234913  49.8526493
  57.8556993  58.5794913  50.2796493  57.6496993  59.0744913  49.0176493
  57.7116993  59.1764913  49.7926493  59.4466993  55.1314913  49.7326493
  60.1516993  55.4514913  49.3306493  59.6876993  54.3244913  49.9596493
  59.5856993  55.0594913  49.7066493  60.0256993  64.1174913  35.6436493
  59.2206993  63.9404913  35.3586493  59.9926993  64.9684913  35.8356493
  59.9016993  64.2164913  35.6306493  55.9556993  60.1844913  45.7936493
  56.3956993  60.0814913  45.0476493  56.5006993  59.8714913  46.3986493
  56.1006993  60.1234913  45.7726493  59.5026993  55.1694913  45.8406493
  58.6766993  55.0204913  46.0776493  59.4626993  55.2044913  44.9696493
  59.3746993  55.1524913  45.7466493  61.1436993  66.2094913  50.6286493
  60.3486993  66.1454913  50.9796493  61.2146993  67.0564913  50.4336493
  61.0366993  66.3244913  50.6516493  52.0676993  55.5674913  51.8756493
  51.9276993  56.3624913  51.5446493  51.2816993  55.3244913  52.1646493
  51.9306993  55.6494913  51.8696493  55.1316993  58.3114913  39.1006493
  55.2576993  57.9824913  38.3026493  54.3196993  58.0624913  39.2996493
  55.0306993  58.2264913  39.0126493  61.4106993  64.7384913  41.7096493
  61.1126993  64.4234913  42.4666493  62.1056993  65.2114913  41.9446493
  61.4696993  64.7614913  41.8566493  61.6326993  68.8564913  49.7366493
  62.3196993  68.7424913  50.2616493  61.7666993  69.6474913  49.3926493
  61.7536993  68.9564913  49.7636493  62.2556993  63.3204913  53.3106493
  62.5786993  64.0064913  52.8786493  61.5516993  63.6434913  53.7126493
  62.1986993  63.4694913  53.3056493  62.0406993  66.7844913  47.1696493
  61.3466993  67.1864913  47.5126493  62.7176993  67.2174913  47.5086493
  62.0376993  66.9074913  47.2706493  55.1086993  60.3224913  49.5166493
  55.4836993  60.9414913  49.0296493  55.7826993  59.8484913  49.8016493
  55.2636993  60.3444913  49.4866493  52.8836993  58.7704913  48.7916493
  52.9606993  58.6014913  47.9386493  53.6296993  59.1764913  48.9886493
  53.0046993  58.8054913  48.6946493  55.4376993  56.1804913  51.2026493
  55.3566993  55.3364913  51.4086493  55.1236993  56.2244913  50.3896493
  55.3796993  56.0624913  51.1126493  62.3626993  68.3754913  40.3386493
  62.1576993  69.2084913  40.1796493  61.5876993  67.9934913  40.4606493
  62.2176993  68.4424913  40.3336493  52.2806993  63.9964913  49.0156493
  52.6006993  64.2154913  48.2346493  52.1806993  63.1314913  48.9606493
  52.3126993  63.9014913  48.8926493  53.7366993  59.9324913  35.6336493
  53.0646993  59.9464913  36.1896493  53.8316993  59.0844913  35.4496493
  53.6516993  59.8094913  35.6886493  62.4176993  56.5464913  43.2236493
  61.7176993  57.0644913  43.1676493  62.4556993  56.1664913  42.4396493
  62.3196993  56.5674913  43.0996493  57.7246993  68.6374913  36.7476493
  58.1656993  68.7174913  37.4956493  56.9196993  68.4214913  37.0056493
  57.6706993  68.6174913  36.8966493  57.0436993  63.2884913  50.4006493
  56.6476993  64.0624913  50.4756493  56.6376993  62.9154913  49.7246493
  56.9256993  63.3474913  50.3116493  55.0536993  67.7074913  37.3486493
  54.8096993  67.4004913  38.1286493  55.0206993  67.0044913  36.8326493
  55.0126993  67.5584913  37.3876493  57.8726993  65.9524913  36.0916493
  57.0546993  65.6844913  36.2316493  57.8446993  66.8044913  36.2766493
  57.7476993  66.0394913  36.1396493  57.4726993  56.2654913  47.8506493
  56.6086993  56.3494913  47.9306493  57.6926993  55.7514913  48.5196493
  57.3776993  56.2024913  47.9616493  61.5756993  57.0134913  46.2246493
  60.8386993  56.5594913  46.3376493  62.1466993  56.6114913  46.7476493
  61.5506993  56.8864913  46.3186493  59.0786993  61.3424913  51.4286493
  58.7566993  60.7664913  50.8586493  58.7196993  62.0974913  51.1826493
  58.9786993  61.3684913  51.3086493  59.8746993  54.5944913  36.0556493
  59.9526993  54.8414913  35.2226493  59.1316993  54.9714913  36.3136493
  59.7766993  54.6864913  35.9706493  54.6926993  56.3484913  48.4986493
  54.3496993  55.5814913  48.2646493  53.9976993  56.8724913  48.5626493
  54.5396993  56.3124913  48.4736493  53.3456993  59.6624913  42.4546493
  52.9776993  59.9644913  43.1856493  53.8796993  59.0334913  42.7386493
  53.3696993  59.6144913  42.6046493  53.0336993  68.0704913  49.9656493
  52.4596993  68.4864913  50.4746493  53.7666993  68.5354913  50.0606493
  53.0576993  68.2004913  50.0546493  58.9866993  63.7344913  38.4686493
  59.0866993  63.8734913  37.6136493  59.8046993  63.6744913  38.7646493
  59.1216993  63.7454913  38.3856493  58.1256993  56.7094913  51.5846493
  58.3596993  56.1334913  50.9716493  57.2836993  56.5284913  51.7256493
  58.0356993  56.5974913  51.5146493  61.1076993  66.2714913  37.7006493
  61.8246993  65.9244913  37.3446493  61.0736993  67.0714913  37.3526493
  61.2086993  66.3384913  37.5966493  62.3256993  61.8284913  26.6104083
  61.8016993  62.4244913  26.9734083  62.7226993  61.4604913  27.2944083
  62.3066993  61.8624913  26.7654083  52.1946993  65.9684913  22.0664083
  51.7536993  66.0864913  22.8094083  51.9116993  65.1934913  21.7814083
  52.0876993  65.8714913  22.1344083  51.9376993  59.7604913  18.5734083
  51.1596993  59.9224913  18.2134083  51.9766993  58.8894913  18.5954083
  51.8286993  59.6554913  18.5234083  55.0766993  65.0234913  17.2454083
  54.6846993  64.6524913  16.5594083  54.9966993  64.4254913  17.8744083
  55.0066993  64.8804913  17.2364083  54.7036993  66.6644913  21.1454083
  55.3116993  66.4944913  21.7484083  53.9526993  66.5244913  21.5664083
  54.6826993  66.6184913  21.2964083  58.9856993  55.9994913  21.0944083
  58.9156993  56.6764913  20.5484083  59.7266993  55.6114913  20.8454083
  59.0846993  56.0424913  20.9764083  52.1346993  68.7034913  28.3214083
  52.2636993  68.4234913  29.1374083  51.5246993  68.1624913  28.0124083
  52.0636993  68.5824913  28.3964083  58.7086993  66.2284913  33.3884083
  58.4726993  66.2254913  34.2284083  57.9606993  66.0804913  32.9644083
  58.5626993  66.2054913  33.4494083  53.5806993  63.2244913  22.5234083
  53.1186993  62.8324913  21.8964083  54.2806993  62.7114913  22.6154083
  53.6156993  63.0914913  22.4444083  58.0886993  58.8344913  27.8704083
  58.7666993  58.8524913  27.3214083  58.0436993  57.9984913  28.1154083
  58.1816993  58.7134913  27.8254083  55.5816993  61.3244913  22.5464083
  56.3986993  61.1374913  22.7894083  55.1046993  60.7104913  22.9424083
  55.6316993  61.2064913  22.6414083  59.7856993  67.3054913  25.1564083
  60.1336993  66.5064913  25.1864083  60.4506993  67.8094913  24.9014083
  59.9356993  67.2614913  25.1234083  59.8426993  66.7544913  21.3674083
  60.1736993  66.1104913  21.8534083  60.0826993  66.5434913  20.5564083
  59.9266993  66.6284913  21.3194083  61.8106993  60.8854913  32.7064083
  60.9626993  60.7864913  32.5284083  61.8396993  61.6304913  33.1604083
  61.6896993  60.9814913  32.7474083  56.1786993  56.4184913  21.8124083
  55.8826993  56.9194913  21.1624083  57.0456993  56.4964913  21.7554083
  56.2626993  56.5044913  21.7084083  59.1576993  55.5604913  24.0354083
  59.2306993  56.4204913  24.1644083  59.1196993  55.4854913  23.1674083
  59.1626993  55.6764913  23.9264083  52.0366993  60.9854913  25.5364083
  51.7806993  61.8164913  25.4614083  51.3726993  60.6024913  25.9534083
  51.9006993  61.0514913  25.5874083  57.7866993  68.5394913  20.9164083
  57.2076993  68.2644913  21.5084083  58.4106993  67.9304913  20.9414083
  57.7936993  68.4094913  21.0074083  55.0656993  55.8024913  26.0274083
  54.5446993  55.1744913  25.7194083  55.6566993  55.3654913  26.4984083
  55.0766993  55.6444913  26.0514083  58.3716993  57.9354913  35.3254083
  58.4886993  57.4814913  34.5894083  58.6596993  58.7334913  35.1224083
  58.4316993  57.9864913  35.1864083  54.1046993  57.5324913  34.3094083
  53.3266993  57.1424913  34.2374083  54.5956993  57.1204913  33.7184083
  54.0616993  57.4134913  34.2114083  54.3096993  67.8524913  24.8674083
  54.7326993  67.4964913  24.1934083  54.6336993  67.4304913  25.5594083
  54.4196993  67.7374913  24.8704083  60.7536993  55.1754913  33.4774083
  60.9316993  54.3664913  33.2024083  60.6106993  55.6164913  32.7384083
  60.7586993  55.1214913  33.3274083  61.3476993  60.1014913  22.2504083
  61.6346993  59.8694913  21.4604083  62.0796993  60.1804913  22.7194083
  61.4976993  60.0784913  22.2034083  62.0696993  60.4404913  17.3714083
  62.3506993  61.2284913  17.6204083  61.2936993  60.6054913  17.0084083
  61.9966993  60.5814913  17.3544083  51.4526993  58.0804913  31.8954083
  51.4486993  58.6674913  32.5414083  52.0466993  58.3924913  31.3384083
  51.5396993  58.2134913  31.9084083  60.9286993  68.6114913  17.1874083
  60.7476993  69.1564913  17.8444083  61.6946993  68.9014913  16.8864083
  61.0146993  68.7354913  17.2404083  52.3896993  57.6754913  20.8104083
  52.2756993  56.8114913  20.8414083  51.9146993  57.9694913  21.4804083
  52.3026993  57.5914913  20.9134083  61.6936993  58.8834913  19.5554083
  61.1856993  58.2214913  19.3014083  61.7456993  59.3874913  18.8454083
  61.6266993  58.8604913  19.4134083  61.6936993  55.8244913  19.4464083
  61.2386993  55.4224913  18.8204083  62.4666993  55.9794913  19.0714083
  61.7406993  55.7884913  19.2984083  60.2916993  58.1914913  23.9684083
  60.3656993  58.7594913  23.3104083  60.4126993  58.6834913  24.6784083
  60.3196993  58.3484913  23.9764083  55.8926993  68.9364913  31.5924083
  56.7336993  68.9994913  31.3704083  55.8556993  69.3334913  32.3684083
  56.0116993  69.0044913  31.6744083  54.8996993  54.0144913  22.3164083
  55.4356993  54.7024913  22.3064083  54.9026993  53.7404913  21.4884083
  54.9786993  54.0754913  22.1924083  57.8556993  64.4474913  26.3414083
  58.0276993  64.2374913  27.1704083  57.2006993  63.9134913  26.1254083
  57.7846993  64.3374913  26.4324083  58.6056993  64.3854913  28.9314083
  58.6586993  65.2324913  29.1334083  58.3206993  64.0154913  29.6684083
  58.5716993  64.4554913  29.0694083  51.4266993  68.7564913  35.1424083
  52.1826993  69.1054913  35.4004083  51.6036993  67.9034913  35.0854083
  51.5646993  68.6814913  35.1724083  55.3476993  57.8244913  23.9704083
  55.6196993  57.3944913  23.2624083  55.1716993  57.1884913  24.5414083
  55.3616993  57.6674913  23.9504083  55.1716993  65.2514913  23.5194083
  56.0226993  65.1714913  23.3464083  54.8146993  64.5694913  23.1074083
  55.2446993  65.1384913  23.4324083  53.4886993  58.9264913  27.0524083
  54.3316993  59.1464913  27.0094083  53.0996993  59.4994913  26.5214083
  53.5556993  59.0434913  26.9674083  57.5396993  65.2584913  21.7544083
  58.2526993  65.7534913  21.8444083  57.7616993  64.6914913  21.1284083
  57.6776993  65.2474913  21.6754083  51.6956993  66.9014913  25.0744083
  51.0286993  67.3894913  25.3504083  52.3756993  67.4464913  25.1034083
  51.6976993  67.0534913  25.1194083  59.3426993  60.6114913  35.1704083
  58.8586993  61.1884913  35.6124083  59.3146993  60.9064913  34.3494083
  59.2666993  60.7404913  35.1144083  51.7616993  63.5854913  20.1774083
  51.5766993  62.7464913  20.3294083  52.4206993  63.5494913  19.6074083
  51.8316993  63.4564913  20.1154083  62.0626993  68.9614913  24.0814083
  61.5396993  69.5954913  23.7884083  62.3726993  68.5974913  23.3524083
  62.0306993  69.0014913  23.9304083  51.9336993  67.7494913  19.7524083
  52.4856993  68.3184913  20.1164083  51.7016993  67.2344913  20.4174083
  51.9806993  67.7574913  19.9044083  56.1376993  66.7494913  26.8414083
  56.6046993  67.0384913  27.5194083  56.7096993  66.2714913  26.3874083
  56.2916993  66.7214913  26.8744083  51.7636993  66.1984913  17.3804083
  52.5196993  65.7664913  17.4384083  51.7786993  66.7304913  18.0714083
  51.8776993  66.2134913  17.4914083  52.7036993  64.4194913  25.3854083
  53.1346993  64.2904913  24.6384083  52.4986993  65.2674913  25.3594083
  52.7366993  64.5254913  25.2714083  59.0496993  57.9834913  19.0354083
  59.0476993  57.8664913  18.1704083  58.8686993  58.8314913  19.1274083
  59.0226993  58.0914913  18.9214083  56.7876993  67.9354913  23.6674083
  56.9136993  68.7784913  23.8544083  57.4556993  67.5364913  24.0634083
  56.9056993  68.0014913  23.7534083  54.9176993  61.4184913  33.5294083
  54.3816993  60.9124913  33.9974083  54.9376993  61.0284913  32.7494083
  54.8406993  61.2854913  33.4834083  55.4026993  60.8154913  18.6694083
  55.2746993  60.3674913  19.4074083  54.8206993  60.4734913  18.1174083
  55.2976993  60.6984913  18.6974083  55.5696993  62.6454913  25.2684083
  54.7886993  62.5864913  24.8854083  55.6416993  61.8934913  25.7054083
  55.4646993  62.5264913  25.2764083  55.9996993  62.3824913  28.7364083
  56.0246993  61.7074913  28.1854083  55.3536993  62.8784913  28.4244083
  55.9086993  62.3554913  28.6094083  62.5396993  56.0014913  30.5614083
  62.6886993  55.1764913  30.3184083  62.9186993  56.0564913  31.3454083
  62.6176993  55.8874913  30.6414083  53.7986993  63.7374913  34.2954083
  53.7616993  64.2384913  33.5814083  54.1296993  62.9854913  34.0004083
  53.8416993  63.6994913  34.1464083  59.6976993  68.7874913  33.7304083
  60.0516993  68.6094913  34.5074083  59.2616993  68.0584913  33.5314083
  59.6856993  68.6534913  33.8164083  60.6696993  59.5344913  26.3684083
  61.1496993  60.2334913  26.5764083  61.0426993  58.8874913  26.8194083
  60.7956993  59.5424913  26.4654083  62.8586993  62.7034913  18.6424083
  62.8506993  63.4254913  18.1524083  62.2196993  62.8384913  19.2194083
  62.7636993  62.8304913  18.6554083  57.4516993  55.0454913  18.3034083
  57.5486993  54.9384913  19.1644083  56.7436993  55.5514913  18.2384083
  57.3616993  55.1044913  18.4214083  54.5736993  63.3524913  19.5464083
  54.8976993  62.5734913  19.3244083  55.2196993  63.7204913  20.0014083
  54.7166993  63.2914913  19.5804083  51.5706993  55.0134913  20.5144083
  51.6996993  54.3054913  20.0224083  51.2036993  54.6954913  21.2394083
  51.5356993  54.8614913  20.5494083  61.2636993  62.6944913  20.9714083
  61.3226993  63.3444913  21.5504083  61.0746993  61.9984913  21.4624083
  61.2446993  62.6874913  21.1294083  55.7596993  57.2114913  17.4834083
  55.2486993  57.2644913  16.7774083  56.5436993  57.4514913  17.1874083
  55.7996993  57.2544913  17.3354083  60.4866993  64.7414913  25.4024083
  59.6396993  64.5474913  25.4834083  60.8106993  64.5764913  26.1954083
  60.4086993  64.6884913  25.5314083  54.3346993  64.4344913  27.7184083
  55.0566993  64.9224913  27.6814083  54.0646993  64.4044913  26.8894083
  54.4016993  64.5024913  27.5904083  57.5646993  59.6054913  24.4534083
  58.4106993  59.4154913  24.5514083  57.1946993  58.8284913  24.3154083
  57.6346993  59.4624913  24.4474083  52.3856993  60.9434913  21.1084083
  52.8746993  60.6514913  21.7694083  52.5146993  60.3504913  20.4814083
  52.4766993  60.8124913  21.1134083  56.9106993  62.3774913  16.5944083
  56.3006993  61.9724913  17.0684083  56.5246993  62.4954913  15.8214083
  56.7636993  62.3344913  16.5504083  53.7296993  65.4864913  31.9964083
  53.3086993  64.9684913  31.4354083  53.3776993  66.2724913  31.8534083
  53.6156993  65.5264913  31.8924083  58.3656993  60.8384913  19.3044083
  58.6376993  61.6644913  19.3714083  57.5026993  60.9134913  19.2084083
  58.2786993  60.9714913  19.2994083  51.8456993  56.8084913  25.8404083
  51.8896993  57.1524913  25.0394083  52.6006993  57.0454913  26.2074083
  51.9636993  56.8944913  25.7764083  58.4686993  67.2974913  28.6144083
  58.1706993  67.8894913  29.1814083  58.5236993  67.7394913  27.8654083
  58.4326993  67.4504913  28.5874083  56.4476993  66.2474913  32.0124083
  55.6416993  65.9574913  32.1794083  56.3586993  67.1154913  32.0184083
  56.3156993  66.3324913  32.0374083  60.9846993  63.7204913  28.1054083
  61.4606993  64.0944913  28.7334083  60.1616993  63.8544913  28.3644083
  60.9336993  63.7954913  28.2364083  57.6946993  59.3234913  30.8464083
  57.8556993  58.5794913  31.2734083  57.6496993  59.0744913  30.0114083
  57.7116993  59.1764913  30.7864083  59.4466993  55.1314913  30.7264083
  60.1516993  55.4514913  30.3244083  59.6876993  54.3244913  30.9534083
  59.5856993  55.0594913  30.7004083  60.0256993  64.1174913  16.6374083
  59.2206993  63.9404913  16.3524083  59.9926993  64.9684913  16.8294083
  59.9016993  64.2164913  16.6244083  55.9556993  60.1844913  26.7874083
  56.3956993  60.0814913  26.0414083  56.5006993  59.8714913  27.3924083
  56.1006993  60.1234913  26.7664083  59.5026993  55.1694913  26.8344083
  58.6766993  55.0204913  27.0714083  59.4626993  55.2044913  25.9634083
  59.3746993  55.1524913  26.7404083  61.1436993  66.2094913  31.6224083
  60.3486993  66.1454913  31.9734083  61.2146993  67.0564913  31.4274083
  61.0366993  66.3244913  31.6454083  52.0676993  55.5674913  32.8694083
  51.9276993  56.3624913  32.5384083  51.2816993  55.3244913  33.1584083
  51.9306993  55.6494913  32.8634083  55.1316993  58.3114913  20.0944083
  55.2576993  57.9824913  19.2964083  54.3196993  58.0624913  20.2934083
  55.0306993  58.2264913  20.0064083  61.4106993  64.7384913  22.7034083
  61.1126993  64.4234913  23.4604083  62.1056993  65.2114913  22.9384083
  61.4696993  64.7614913  22.8504083  61.6326993  68.8564913  30.7304083
  62.3196993  68.7424913  31.2554083  61.7666993  69.6474913  30.3864083
  61.7536993  68.9564913  30.7574083  62.2556993  63.3204913  34.3044083
  62.5786993  64.0064913  33.8724083  61.5516993  63.6434913  34.7064083
  62.1986993  63.4694913  34.2994083  62.0406993  66.7844913  28.1634083
  61.3466993  67.1864913  28.5064083  62.7176993  67.2174913  28.5024083
  62.0376993  66.9074913  28.2644083  55.1086993  60.3224913  30.5104083
  55.4836993  60.9414913  30.0234083  55.7826993  59.8484913  30.7954083
  55.2636993  60.3444913  30.4804083  52.8836993  58.7704913  29.7854083
  52.9606993  58.6014913  28.9324083  53.6296993  59.1764913  29.9824083
  53.0046993  58.8054913  29.6884083  55.4376993  56.1804913  32.1964083
  55.3566993  55.3364913  32.4024083  55.1236993  56.2244913  31.3834083
  55.3796993  56.0624913  32.1064083  62.3626993  68.3754913  21.3324083
  62.1576993  69.2084913  21.1734083  61.5876993  67.9934913  21.4544083
  62.2176993  68.4424913  21.3274083  52.2806993  63.9964913  30.0094083
  52.6006993  64.2154913  29.2284083  52.1806993  63.1314913  29.9544083
  52.3126993  63.9014913  29.8864083  53.7366993  59.9324913  16.6274083
  53.0646993  59.9464913  17.1834083  53.8316993  59.0844913  16.4434083
  53.6516993  59.8094913  16.6824083  62.4176993  56.5464913  24.2174083
  61.7176993  57.0644913  24.1614083  62.4556993  56.1664913  23.4334083
  62.3196993  56.5674913  24.0934083  57.7246993  68.6374913  17.7414083
  58.1656993  68.7174913  18.4894083  56.9196993  68.4214913  17.9994083
  57.6706993  68.6174913  17.8904083  57.0436993  63.2884913  31.3944083
  56.6476993  64.0624913  31.4694083  56.6376993  62.9154913  30.7184083
  56.9256993  63.3474913  31.3054083  55.0536993  67.7074913  18.3424083
  54.8096993  67.4004913  19.1224083  55.0206993  67.0044913  17.8264083
  55.0126993  67.5584913  18.3814083  57.8726993  65.9524913  17.0854083
  57.0546993  65.6844913  17.2254083  57.8446993  66.8044913  17.2704083
  57.7476993  66.0394913  17.1334083  57.4726993  56.2654913  28.8444083
  56.6086993  56.3494913  28.9244083  57.6926993  55.7514913  29.5134083
  57.3776993  56.2024913  28.9554083  61.5756993  57.0134913  27.2184083
  60.8386993  56.5594913  27.3314083  62.1466993  56.6114913  27.7414083
  61.5506993  56.8864913  27.3124083  59.0786993  61.3424913  32.4224083
  58.7566993  60.7664913  31.8524083  58.7196993  62.0974913  32.1764083
  58.9786993  61.3684913  32.3024083  59.8746993  54.5944913  17.0494083
  59.9526993  54.8414913  16.2164083  59.1316993  54.9714913  17.3074083
  59.7766993  54.6864913  16.9644083  54.6926993  56.3484913  29.4924083
  54.3496993  55.5814913  29.2584083  53.9976993  56.8724913  29.5564083
  54.5396993  56.3124913  29.4674083  53.3456993  59.6624913  23.4484083
  52.9776993  59.9644913  24.1794083  53.8796993  59.0334913  23.7324083
  53.3696993  59.6144913  23.5984083  53.0336993  68.0704913  30.9594083
  52.4596993  68.4864913  31.4684083  53.7666993  68.5354913  31.0544083
  53.0576993  68.2004913  31.0484083  58.9866993  63.7344913  19.4624083
  59.0866993  63.8734913  18.6074083  59.8046993  63.6744913  19.7584083
  59.1216993  63.7454913  19.3794083  58.1256993  56.7094913  32.5784083
  58.3596993  56.1334913  31.9654083  57.2836993  56.5284913  32.7194083
  58.0356993  56.5974913  32.5084083  61.1076993  66.2714913  18.6944083
  61.8246993  65.9244913  18.3384083  61.0736993  67.0714913  18.3464083
  61.2086993  66.3384913  18.5904083  62.3256993  61.8284913   7.6041673
  61.8016993  62.4244913   7.9671673  62.7226993  61.4604913   8.2881673
  62.3066993  61.8624913   7.7591673  52.1946993  65.9684913   3.0601673
  51.7536993  66.0864913   3.8031673  51.9116993  65.1934913   2.7751673
  52.0876993  65.8714913   3.1281673  54.7036993  66.6644913   2.1391673
  55.3116993  66.4944913   2.7421673  53.9526993  66.5244913   2.5601673
  54.6826993  66.6184913   2.2901673  58.9856993  55.9994913   2.0881673
  58.9156993  56.6764913   1.5421673  59.7266993  55.6114913   1.8391673
  59.0846993  56.0424913   1.9701673  52.1346993  68.7034913   9.3151673
  52.2636993  68.4234913  10.1311673  51.5246993  68.1624913   9.0061673
  52.0636993  68.5824913   9.3901673  58.7086993  66.2284913  14.3821673
  58.4726993  66.2254913  15.2221673  57.9606993  66.0804913  13.9581673
  58.5626993  66.2054913  14.4431673  53.5806993  63.2244913   3.5171673
  53.1186993  62.8324913   2.8901673  54.2806993  62.7114913   3.6091673
  53.6156993  63.0914913   3.4381673  58.0886993  58.8344913   8.8641673
  58.7666993  58.8524913   8.3151673  58.0436993  57.9984913   9.1091673
  58.1816993  58.7134913   8.8191673  55.5816993  61.3244913   3.5401673
  56.3986993  61.1374913   3.7831673  55.1046993  60.7104913   3.9361673
  55.6316993  61.2064913   3.6351673  59.7856993  67.3054913   6.1501673
  60.1336993  66.5064913   6.1801673  60.4506993  67.8094913   5.8951673
  59.9356993  67.2614913   6.1171673  59.8426993  66.7544913   2.3611673
  60.1736993  66.1104913   2.8471673  60.0826993  66.5434913   1.5501673
  59.9266993  66.6284913   2.3131673  61.8106993  60.8854913  13.7001673
  60.9626993  60.7864913  13.5221673  61.8396993  61.6304913  14.1541673
  61.6896993  60.9814913  13.7411673  56.1786993  56.4184913   2.8061673
  55.8826993  56.9194913   2.1561673  57.0456993  56.4964913   2.7491673
  56.2626993  56.5044913   2.7021673  59.1576993  55.5604913   5.0291673
  59.2306993  56.4204913   5.1581673  59.1196993  55.4854913   4.1611673
  59.1626993  55.6764913   4.9201673  52.0366993  60.9854913   6.5301673
  51.7806993  61.8164913   6.4551673  51.3726993  60.6024913   6.9471673
  51.9006993  61.0514913   6.5811673  57.7866993  68.5394913   1.9101673
  57.2076993  68.2644913   2.5021673  58.4106993  67.9304913   1.9351673
  57.7936993  68.4094913   2.0011673  55.0656993  55.8024913   7.0211673
  54.5446993  55.1744913   6.7131673  55.6566993  55.3654913   7.4921673
  55.0766993  55.6444913   7.0451673  58.3716993  57.9354913  16.3191673
  58.4886993  57.4814913  15.5831673  58.6596993  58.7334913  16.1161673
  58.4316993  57.9864913  16.1801673  54.1046993  57.5324913  15.3031673
  53.3266993  57.1424913  15.2311673  54.5956993  57.1204913  14.7121673
  54.0616993  57.4134913  15.2051673  54.3096993  67.8524913   5.8611673
  54.7326993  67.4964913   5.1871673  54.6336993  67.4304913   6.5531673
  54.4196993  67.7374913   5.8641673  60.7536993  55.1754913  14.4711673
  60.9316993  54.3664913  14.1961673  60.6106993  55.6164913  13.7321673
  60.7586993  55.1214913  14.3211673  61.3476993  60.1014913   3.2441673
  61.6346993  59.8694913   2.4541673  62.0796993  60.1804913   3.7131673
  61.4976993  60.0784913   3.1971673  51.4526993  58.0804913  12.8891673
  51.4486993  58.6674913  13.5351673  52.0466993  58.3924913  12.3321673
  51.5396993  58.2134913  12.9021673  52.3896993  57.6754913   1.8041673
  52.2756993  56.8114913   1.8351673  51.9146993  57.9694913   2.4741673
  52.3026993  57.5914913   1.9071673  60.2916993  58.1914913   4.9621673
  60.3656993  58.7594913   4.3041673  60.4126993  58.6834913   5.6721673
  60.3196993  58.3484913   4.9701673  55.8926993  68.9364913  12.5861673
  56.7336993  68.9994913  12.3641673  55.8556993  69.3334913  13.3621673
  56.0116993  69.0044913  12.6681673  54.8996993  54.0144913   3.3101673
  55.4356993  54.7024913   3.3001673  54.9026993  53.7404913   2.4821673
  54.9786993  54.0754913   3.1861673  57.8556993  64.4474913   7.3351673
  58.0276993  64.2374913   8.1641673  57.2006993  63.9134913   7.1191673
  57.7846993  64.3374913   7.4261673  58.6056993  64.3854913   9.9251673
  58.6586993  65.2324913  10.1271673  58.3206993  64.0154913  10.6621673
  58.5716993  64.4554913  10.0631673  51.4266993  68.7564913  16.1361673
  52.1826993  69.1054913  16.3941673  51.6036993  67.9034913  16.0791673
  51.5646993  68.6814913  16.1661673  55.3476993  57.8244913   4.9641673
  55.6196993  57.3944913   4.2561673  55.1716993  57.1884913   5.5351673
  55.3616993  57.6674913   4.9441673  55.1716993  65.2514913   4.5131673
  56.0226993  65.1714913   4.3401673  54.8146993  64.5694913   4.1011673
  55.2446993  65.1384913   4.4261673  53.4886993  58.9264913   8.0461673
  54.3316993  59.1464913   8.0031673  53.0996993  59.4994913   7.5151673
  53.5556993  59.0434913   7.9611673  57.5396993  65.2584913   2.7481673
  58.2526993  65.7534913   2.8381673  57.7616993  64.6914913   2.1221673
  57.6776993  65.2474913   2.6691673  51.6956993  66.9014913   6.0681673
  51.0286993  67.3894913   6.3441673  52.3756993  67.4464913   6.0971673
  51.6976993  67.0534913   6.1131673  59.3426993  60.6114913  16.1641673
  58.8586993  61.1884913  16.6061673  59.3146993  60.9064913  15.3431673
  59.2666993  60.7404913  16.1081673  62.0626993  68.9614913   5.0751673
  61.5396993  69.5954913   4.7821673  62.3726993  68.5974913   4.3461673
  62.0306993  69.0014913   4.9241673  56.1376993  66.7494913   7.8351673
  56.6046993  67.0384913   8.5131673  56.7096993  66.2714913   7.3811673
  56.2916993  66.7214913   7.8681673  52.7036993  64.4194913   6.3791673
  53.1346993  64.2904913   5.6321673  52.4986993  65.2674913   6.3531673
  52.7366993  64.5254913   6.2651673  56.7876993  67.9354913   4.6611673
  56.9136993  68.7784913   4.8481673  57.4556993  67.5364913   5.0571673
  56.9056993  68.0014913   4.7471673  54.9176993  61.4184913  14.5231673
  54.3816993  60.9124913  14.9911673  54.9376993  61.0284913  13.7431673
  54.8406993  61.2854913  14.4771673  55.5696993  62.6454913   6.2621673
  54.7886993  62.5864913   5.8791673  55.6416993  61.8934913   6.6991673
  55.4646993  62.5264913   6.2701673  55.9996993  62.3824913   9.7301673
  56.0246993  61.7074913   9.1791673  55.3536993  62.8784913   9.4181673
  55.9086993  62.3554913   9.6031673  62.5396993  56.0014913  11.5551673
  62.6886993  55.1764913  11.3121673  62.9186993  56.0564913  12.3391673
  62.6176993  55.8874913  11.6351673  53.7986993  63.7374913  15.2891673
  53.7616993  64.2384913  14.5751673  54.1296993  62.9854913  14.9941673
  53.8416993  63.6994913  15.1401673  59.6976993  68.7874913  14.7241673
  60.0516993  68.6094913  15.5011673  59.2616993  68.0584913  14.5251673
  59.6856993  68.6534913  14.8101673  60.6696993  59.5344913   7.3621673
  61.1496993  60.2334913   7.5701673  61.0426993  58.8874913   7.8131673
  60.7956993  59.5424913   7.4591673  61.2636993  62.6944913   1.9651673
  61.3226993  63.3444913   2.5441673  61.0746993  61.9984913   2.4561673
  61.2446993  62.6874913   2.1231673  60.4866993  64.7414913   6.3961673
  59.6396993  64.5474913   6.4771673  60.8106993  64.5764913   7.1891673
  60.4086993  64.6884913   6.5251673  54.3346993  64.4344913   8.7121673
  55.0566993  64.9224913   8.6751673  54.0646993  64.4044913   7.8831673
  54.4016993  64.5024913   8.5841673  57.5646993  59.6054913   5.4471673
  58.4106993  59.4154913   5.5451673  57.1946993  58.8284913   5.3091673
  57.6346993  59.4624913   5.4411673  53.7296993  65.4864913  12.9901673
  53.3086993  64.9684913  12.4291673  53.3776993  66.2724913  12.8471673
  53.6156993  65.5264913  12.8861673  51.8456993  56.8084913   6.8341673
  51.8896993  57.1524913   6.0331673  52.6006993  57.0454913   7.2011673
  51.9636993  56.8944913   6.7701673  58.4686993  67.2974913   9.6081673
  58.1706993  67.8894913  10.1751673  58.5236993  67.7394913   8.8591673
  58.4326993  67.4504913   9.5811673  56.4476993  66.2474913  13.0061673
  55.6416993  65.9574913  13.1731673  56.3586993  67.1154913  13.0121673
  56.3156993  66.3324913  13.0311673  60.9846993  63.7204913   9.0991673
  61.4606993  64.0944913   9.7271673  60.1616993  63.8544913   9.3581673
  60.9336993  63.7954913   9.2301673  57.6946993  59.3234913  11.8401673
  57.8556993  58.5794913  12.2671673  57.6496993  59.0744913  11.0051673
  57.7116993  59.1764913  11.7801673  59.4466993  55.1314913  11.7201673
  60.1516993  55.4514913  11.3181673  59.6876993  54.3244913  11.9471673
  59.5856993  55.0594913  11.6941673  55.9556993  60.1844913   7.7811673
  56.3956993  60.0814913   7.0351673  56.5006993  59.8714913   8.3861673
  56.1006993  60.1234913   7.7601673  59.5026993  55.1694913   7.8281673
  58.6766993  55.0204913   8.0651673  59.4626993  55.2044913   6.9571673
  59.3746993  55.1524913   7.7341673  61.1436993  66.2094913  12.6161673
  60.3486993  66.1454913  12.9671673  61.2146993  67.0564913  12.4211673
  61.0366993  66.3244913  12.6391673  52.0676993  55.5674913  13.8631673
  51.9276993  56.3624913  13.5321673  51.2816993  55.3244913  14.1521673
  51.9306993  55.6494913  13.8571673  61.4106993  64.7384913   3.6971673
  61.1126993  64.4234913   4.4541673  62.1056993  65.2114913   3.9321673
  61.4696993  64.7614913   3.8441673  61.6326993  68.8564913  11.7241673
  62.3196993  68.7424913  12.2491673  61.7666993  69.6474913  11.3801673
  61.7536993  68.9564913  11.7511673  62.2556993  63.3204913  15.2981673
  62.5786993  64.0064913  14.8661673  61.5516993  63.6434913  15.7001673
  62.1986993  63.4694913  15.2931673  62.0406993  66.7844913   9.1571673
  61.3466993  67.1864913   9.5001673  62.7176993  67.2174913   9.4961673
  62.0376993  66.9074913   9.2581673  55.1086993  60.3224913  11.5041673
  55.4836993  60.9414913  11.0171673  55.7826993  59.8484913  11.7891673
  55.2636993  60.3444913  11.4741673  52.8836993  58.7704913  10.7791673
  52.9606993  58.6014913   9.9261673  53.6296993  59.1764913  10.9761673
  53.0046993  58.8054913  10.6821673  55.4376993  56.1804913  13.1901673
  55.3566993  55.3364913  13.3961673  55.1236993  56.2244913  12.3771673
  55.3796993  56.0624913  13.1001673  62.3626993  68.3754913   2.3261673
  62.1576993  69.2084913   2.1671673  61.5876993  67.9934913   2.4481673
  62.2176993  68.4424913   2.3211673  52.2806993  63.9964913  11.0031673
  52.6006993  64.2154913  10.2221673  52.1806993  63.1314913  10.9481673
  52.3126993  63.9014913  10.8801673  62.4176993  56.5464913   5.2111673
  61.7176993  57.0644913   5.1551673  62.4556993  56.1664913   4.4271673
  62.3196993  56.5674913   5.0871673  57.0436993  63.2884913  12.3881673
  56.6476993  64.0624913  12.4631673  56.6376993  62.9154913  11.7121673
  56.9256993  63.3474913  12.2991673  57.4726993  56.2654913   9.8381673
  56.6086993  56.3494913   9.9181673  57.6926993  55.7514913  10.5071673
  57.3776993  56.2024913   9.9491673  61.5756993  57.0134913   8.2121673
  60.8386993  56.5594913   8.3251673  62.1466993  56.6114913   8.7351673
  61.5506993  56.8864913   8.3061673  59.0786993  61.3424913  13.4161673
  58.7566993  60.7664913  12.8461673  58.7196993  62.0974913  13.1701673
  58.9786993  61.3684913  13.2961673  54.6926993  56.3484913  10.4861673
  54.3496993  55.5814913  10.2521673  53.9976993  56.8724913  10.5501673
  54.5396993  56.3124913  10.4611673  53.3456993  59.6624913   4.4421673
  52.9776993  59.9644913   5.1731673  53.8796993  59.0334913   4.7261673
  53.3696993  59.6144913   4.5921673  53.0336993  68.0704913  11.9531673
  52.4596993  68.4864913  12.4621673  53.7666993  68.5354913  12.0481673
  53.0576993  68.2004913  12.0421673  58.1256993  56.7094913  13.5721673
  58.3596993  56.1334913  12.9591673  57.2836993  56.5284913  13.7131673
  58.0356993  56.5974913  13.5021673  62.3256993  43.3503833  83.6291313
  61.8016993  43.9463833  83.9921313  62.7226993  42.9823833  84.3131313
  62.3066993  43.3843833  83.7841313  52.1946993  47.4903833  79.0851313
  51.7536993  47.6083833  79.8281313  51.9116993  46.7153833  78.8001313
  52.0876993  47.3933833  79.1531313  51.9376993  41.2823833  75.5921313
  51.1596993  41.4443833  75.2321313  51.9766993  40.4113833  75.6141313
  51.8286993  41.1773833  75.5421313  55.0766993  46.5453833  74.2641313
  54.6846993  46.1743833  73.5781313  54.9966993  45.9473833  74.8931313
  55.0066993  46.4023833  74.2551313  54.7036993  48.1863833  78.1641313
  55.3116993  48.0163833  78.7671313  53.9526993  48.0463833  78.5851313
  54.6826993  48.1403833  78.3151313  58.9856993  37.5213833  78.1131313
  58.9156993  38.1983833  77.5671313  59.7266993  37.1333833  77.8641313
  59.0846993  37.5643833  77.9951313  53.5946993  51.2773833  74.2411313
  54.0616993  51.3613833  73.5091313  54.0496993  50.6993833  74.7101313
  53.7306993  51.2043833  74.2021313  52.1346993  50.2253833  85.3401313
  52.2636993  49.9453833  86.1561313  51.5246993  49.6843833  85.0311313
  52.0636993  50.1043833  85.4151313  53.5806993  44.7463833  79.5421313
  53.1186993  44.3543833  78.9151313  54.2806993  44.2333833  79.6341313
  53.6156993  44.6133833  79.4631313  58.0886993  40.3563833  84.8891313
  58.7666993  40.3743833  84.3401313  58.0436993  39.5203833  85.1341313
  58.1816993  40.2353833  84.8441313  58.6906993  50.9423833  87.6701313
  58.8286993  51.7023833  87.2631313  59.4816993  50.5773833  87.6971313
  58.8276993  51.0013833  87.6141313  55.5816993  42.8463833  79.5651313
  56.3986993  42.6593833  79.8081313  55.1046993  42.2323833  79.9611313
  55.6316993  42.7283833  79.6601313  59.7856993  48.8273833  82.1751313
  60.1336993  48.0283833  82.2051313  60.4506993  49.3313833  81.9201313
  59.9356993  48.7833833  82.1421313  59.8426993  48.2763833  78.3861313
  60.1736993  47.6323833  78.8721313  60.0826993  48.0653833  77.5751313
  59.9266993  48.1503833  78.3381313  56.1786993  37.9403833  78.8311313
  55.8826993  38.4413833  78.1811313  57.0456993  38.0183833  78.7741313
  56.2626993  38.0263833  78.7271313  59.1576993  37.0823833  81.0541313
  59.2306993  37.9423833  81.1831313  59.1196993  37.0073833  80.1861313
  59.1626993  37.1983833  80.9451313  52.0366993  42.5073833  82.5551313
  51.7806993  43.3383833  82.4801313  51.3726993  42.1243833  82.9721313
  51.9006993  42.5733833  82.6061313  51.9466993  52.2173833  80.4551313
  51.3546993  52.7753833  80.1421313  52.3726993  51.9483833  79.7431313
  51.9226993  52.2593833  80.3041313  57.7866993  50.0613833  77.9351313
  57.2076993  49.7863833  78.5271313  58.4106993  49.4523833  77.9601313
  57.7936993  49.9313833  78.0261313  62.0976993  52.7413833  77.4471313
  62.3116993  53.2683833  78.1091313  62.8646993  52.5673833  77.0681313
  62.2426993  52.7933833  77.4891313  55.0656993  37.3243833  83.0461313
  54.5446993  36.6963833  82.7381313  55.6566993  36.8873833  83.5171313
  55.0766993  37.1663833  83.0701313  53.4916993  50.8873833  78.3861313
  54.1476993  50.3123833  78.4011313  53.8806993  51.6363833  78.1651313
  53.6466993  50.9123833  78.3561313  54.3096993  49.3743833  81.8861313
  54.7326993  49.0183833  81.2121313  54.6336993  48.9523833  82.5781313
  54.4196993  49.2593833  81.8891313  57.5406993  52.2263833  81.1821313
  58.3846993  52.3303833  80.9871313  57.2436993  53.0443833  81.2501313
  57.6216993  52.3623833  81.1631313  61.3476993  41.6233833  79.2691313
  61.6346993  41.3913833  78.4791313  62.0796993  41.7023833  79.7381313
  61.4976993  41.6003833  79.2221313  62.0696993  41.9623833  74.3901313
  62.3506993  42.7503833  74.6391313  61.2936993  42.1273833  74.0271313
  61.9966993  42.1033833  74.3731313  56.5386993  53.4453833  86.9221313
  56.8306993  53.3783833  87.7421313  55.9126993  52.8403833  86.8771313
  56.4896993  53.3463833  87.0371313  60.9286993  50.1333833  74.2061313
  60.7476993  50.6783833  74.8631313  61.6946993  50.4233833  73.9051313
  61.0146993  50.2573833  74.2591313  52.3896993  39.1973833  77.8291313
  52.2756993  38.3333833  77.8601313  51.9146993  39.4913833  78.4991313
  52.3026993  39.1133833  77.9321313  54.5316993  51.6073833  86.0441313
  53.8336993  51.0993833  86.1701313  54.7916993  51.4023833  85.2361313
  54.4666993  51.5023833  85.9431313  61.6936993  40.4053833  76.5741313
  61.1856993  39.7433833  76.3201313  61.7456993  40.9093833  75.8641313
  61.6266993  40.3823833  76.4321313  62.2426993  53.1003833  86.9541313
  63.0106993  53.0203833  86.5481313  61.6596993  52.9793833  86.3161313
  62.2696993  53.0703833  86.8001313  61.6936993  37.3463833  76.4651313
  61.2386993  36.9443833  75.8391313  62.4666993  37.5013833  76.0901313
  61.7406993  37.3103833  76.3171313  60.2916993  39.7133833  80.9871313
  60.3656993  40.2813833  80.3291313  60.4126993  40.2053833  81.6971313
  60.3196993  39.8703833  80.9951313  54.8996993  35.5363833  79.3351313
  55.4356993  36.2243833  79.3251313  54.9026993  35.2623833  78.5071313
  54.9786993  35.5973833  79.2111313  57.8556993  45.9693833  83.3601313
  58.0276993  45.7593833  84.1891313  57.2006993  45.4353833  83.1441313
  57.7846993  45.8593833  83.4511313  58.6056993  45.9073833  85.9501313
  58.6586993  46.7543833  86.1521313  58.3206993  45.5373833  86.6871313
  58.5716993  45.9773833  86.0881313  55.3476993  39.3463833  80.9891313
  55.6196993  38.9163833  80.2811313  55.1716993  38.7103833  81.5601313
  55.3616993  39.1893833  80.9691313  55.1716993  46.7733833  80.5381313
  56.0226993  46.6933833  80.3651313  54.8146993  46.0913833  80.1261313
  55.2446993  46.6603833  80.4511313  53.9386993  53.4983833  81.7751313
  53.2656993  53.0003833  81.5301313  54.3416993  53.6833833  81.0241313
  53.8986993  53.4523833  81.6281313  53.4886993  40.4483833  84.0711313
  54.3316993  40.6683833  84.0281313  53.0996993  41.0213833  83.5401313
  53.5556993  40.5653833  83.9861313  57.5396993  46.7803833  78.7731313
  58.2526993  47.2753833  78.8631313  57.7616993  46.2133833  78.1471313
  57.6776993  46.7693833  78.6941313  51.6956993  48.4233833  82.0931313
  51.0286993  48.9113833  82.3691313  52.3756993  48.9683833  82.1221313
  51.6976993  48.5753833  82.1381313  51.7616993  45.1073833  77.1961313
  51.5766993  44.2683833  77.3481313  52.4206993  45.0713833  76.6261313
  51.8316993  44.9783833  77.1341313  62.0626993  50.4833833  81.1001313
  61.5396993  51.1173833  80.8071313  62.3726993  50.1193833  80.3711313
  62.0306993  50.5233833  80.9491313  51.9336993  49.2713833  76.7711313
  52.4856993  49.8403833  77.1351313  51.7016993  48.7563833  77.4361313
  51.9806993  49.2793833  76.9231313  56.1376993  48.2713833  83.8601313
  56.6046993  48.5603833  84.5381313  56.7096993  47.7933833  83.4061313
  56.2916993  48.2433833  83.8931313  51.7636993  47.7203833  74.3991313
  52.5196993  47.2883833  74.4571313  51.7786993  48.2523833  75.0901313
  51.8776993  47.7353833  74.5101313  52.7036993  45.9413833  82.4041313
  53.1346993  45.8123833  81.6571313  52.4986993  46.7893833  82.3781313
  52.7366993  46.0473833  82.2901313  59.0496993  39.5053833  76.0541313
  59.0476993  39.3883833  75.1891313  58.8686993  40.3533833  76.1461313
  59.0226993  39.6133833  75.9401313  56.7876993  49.4573833  80.6861313
  56.9136993  50.3003833  80.8731313  57.4556993  49.0583833  81.0821313
  56.9056993  49.5233833  80.7721313  55.4026993  42.3373833  75.6881313
  55.2746993  41.8893833  76.4261313  54.8206993  41.9953833  75.1361313
  55.2976993  42.2203833  75.7161313  55.5696993  44.1673833  82.2871313
  54.7886993  44.1083833  81.9041313  55.6416993  43.4153833  82.7241313
  55.4646993  44.0483833  82.2951313  55.9996993  43.9043833  85.7551313
  56.0246993  43.2293833  85.2041313  55.3536993  44.4003833  85.4431313
  55.9086993  43.8773833  85.6281313  60.0996993  52.6813833  85.1471313
  59.8226993  52.0403833  84.6241313  59.8916993  53.4073833  84.7091313
  60.0286993  52.6943833  85.0051313  60.6696993  41.0563833  83.3871313
  61.1496993  41.7553833  83.5951313  61.0426993  40.4093833  83.8381313
  60.7956993  41.0643833  83.4841313  62.8586993  44.2253833  75.6611313
  62.8506993  44.9473833  75.1711313  62.2196993  44.3603833  76.2381313
  62.7636993  44.3523833  75.6741313  57.7806993  52.8243833  77.3341313
  57.6336993  52.0483833  77.7051313  58.4696993  52.6773833  76.8191313
  57.8606993  52.6873833  77.3131313  57.4516993  36.5673833  75.3221313
  57.5486993  36.4603833  76.1831313  56.7436993  37.0733833  75.2571313
  57.3616993  36.6263833  75.4401313  60.0726993  52.3403833  75.7361313
  60.6946993  52.5033833  76.3261313  60.1086993  53.0313833  75.2041313
  60.1696993  52.4663833  75.7451313  54.5736993  44.8743833  76.5651313
  54.8976993  44.0953833  76.3431313  55.2196993  45.2423833  77.0201313
  54.7166993  44.8133833  76.5991313  51.5706993  36.5353833  77.5331313
  51.6996993  35.8273833  77.0411313  51.2036993  36.2173833  78.2581313
  51.5356993  36.3833833  77.5681313  61.2636993  44.2163833  77.9901313
  61.3226993  44.8663833  78.5691313  61.0746993  43.5203833  78.4811313
  61.2446993  44.2093833  78.1481313  55.7596993  38.7333833  74.5021313
  55.2486993  38.7863833  73.7961313  56.5436993  38.9733833  74.2061313
  55.7996993  38.7763833  74.3541313  60.4866993  46.2633833  82.4211313
  59.6396993  46.0693833  82.5021313  60.8106993  46.0983833  83.2141313
  60.4086993  46.2103833  82.5501313  57.2386993  52.9933833  73.3071313
  57.6776993  52.2963833  73.5951313  57.4456993  53.6173833  73.8801313
  57.3346993  52.9823833  73.4341313  54.3346993  45.9563833  84.7371313
  55.0566993  46.4443833  84.7001313  54.0646993  45.9263833  83.9081313
  54.4016993  46.0243833  84.6091313  57.5646993  41.1273833  81.4721313
  58.4106993  40.9373833  81.5701313  57.1946993  40.3503833  81.3341313
  57.6346993  40.9843833  81.4661313  52.3856993  42.4653833  78.1271313
  52.8746993  42.1733833  78.7881313  52.5146993  41.8723833  77.5001313
  52.4766993  42.3343833  78.1321313  56.9106993  43.8993833  73.6131313
  56.3006993  43.4943833  74.0871313  56.5246993  44.0173833  72.8401313
  56.7636993  43.8563833  73.5691313  58.3656993  42.3603833  76.3231313
  58.6376993  43.1863833  76.3901313  57.5026993  42.4353833  76.2271313
  58.2786993  42.4933833  76.3181313  51.8456993  38.3303833  82.8591313
  51.8896993  38.6743833  82.0581313  52.6006993  38.5673833  83.2261313
  51.9636993  38.4163833  82.7951313  58.4686993  48.8193833  85.6331313
  58.1706993  49.4113833  86.2001313  58.5236993  49.2613833  84.8841313
  58.4326993  48.9723833  85.6061313  60.9846993  45.2423833  85.1241313
  61.4606993  45.6163833  85.7521313  60.1616993  45.3763833  85.3831313
  60.9336993  45.3173833  85.2551313  60.2486993  52.6353833  80.3521313
  60.7946993  53.3143833  80.4061313  59.8986993  52.7173833  79.5571313
  60.2776993  52.7483833  80.2421313  59.4466993  36.6533833  87.7451313
  60.1516993  36.9733833  87.3431313  59.6876993  35.8463833  87.9721313
  59.5856993  36.5813833  87.7191313  58.4316993  50.8633833  83.7411313
  57.8076993  51.4453833  83.5591313  58.6796993  50.5773833  82.9551313
  58.3756993  50.9073833  83.5981313  60.0256993  45.6393833  73.6561313
  59.2206993  45.4623833  73.3711313  59.9926993  46.4903833  73.8481313
  59.9016993  45.7383833  73.6431313  55.9556993  41.7063833  83.8061313
  56.3956993  41.6033833  83.0601313  56.5006993  41.3933833  84.4111313
  56.1006993  41.6453833  83.7851313  59.5026993  36.6913833  83.8531313
  58.6766993  36.5423833  84.0901313  59.4626993  36.7263833  82.9821313
  59.3746993  36.6743833  83.7591313  56.9736993  53.9383833  83.9581313
  56.9846993  53.9973833  84.8281313  56.5486993  53.1913833  83.8081313
  56.9126993  53.8363833  84.0641313  55.1316993  39.8333833  77.1131313
  55.2576993  39.5043833  76.3151313  54.3196993  39.5843833  77.3121313
  55.0306993  39.7483833  77.0251313  61.4106993  46.2603833  79.7221313
  61.1126993  45.9453833  80.4791313  62.1056993  46.7333833  79.9571313
  61.4696993  46.2833833  79.8691313  62.0406993  48.3063833  85.1821313
  61.3466993  48.7083833  85.5251313  62.7176993  48.7393833  85.5211313
  62.0376993  48.4293833  85.2831313  55.1086993  41.8443833  87.5291313
  55.4836993  42.4633833  87.0421313  55.7826993  41.3703833  87.8141313
  55.2636993  41.8663833  87.4991313  52.8836993  40.2923833  86.8041313
  52.9606993  40.1233833  85.9511313  53.6296993  40.6983833  87.0011313
  53.0046993  40.3273833  86.7071313  62.3626993  49.8973833  78.3511313
  62.1576993  50.7303833  78.1921313  61.5876993  49.5153833  78.4731313
  62.2176993  49.9643833  78.3461313  52.2806993  45.5183833  87.0281313
  52.6006993  45.7373833  86.2471313  52.1806993  44.6533833  86.9731313
  52.3126993  45.4233833  86.9051313  53.7366993  41.4543833  73.6461313
  53.0646993  41.4683833  74.2021313  53.8316993  40.6063833  73.4621313
  53.6516993  41.3313833  73.7011313  62.4176993  38.0683833  81.2361313
  61.7176993  38.5863833  81.1801313  62.4556993  37.6883833  80.4521313
  62.3196993  38.0893833  81.1121313  57.7246993  50.1593833  74.7601313
  58.1656993  50.2393833  75.5081313  56.9196993  49.9433833  75.0181313
  57.6706993  50.1393833  74.9091313  55.0536993  49.2293833  75.3611313
  54.8096993  48.9223833  76.1411313  55.0206993  48.5263833  74.8451313
  55.0126993  49.0803833  75.4001313  57.8726993  47.4743833  74.1041313
  57.0546993  47.2063833  74.2441313  57.8446993  48.3263833  74.2891313
  57.7476993  47.5613833  74.1521313  57.4726993  37.7873833  85.8631313
  56.6086993  37.8713833  85.9431313  57.6926993  37.2733833  86.5321313
  57.3776993  37.7243833  85.9741313  61.5756993  38.5353833  84.2371313
  60.8386993  38.0813833  84.3501313  62.1466993  38.1333833  84.7601313
  61.5506993  38.4083833  84.3311313  59.8746993  36.1163833  74.0681313
  59.9526993  36.3633833  73.2351313  59.1316993  36.4933833  74.3261313
  59.7766993  36.2083833  73.9831313  54.6926993  37.8703833  86.5111313
  54.3496993  37.1033833  86.2771313  53.9976993  38.3943833  86.5751313
  54.5396993  37.8343833  86.4861313  53.3456993  41.1843833  80.4671313
  52.9776993  41.4863833  81.1981313  53.8796993  40.5553833  80.7511313
  53.3696993  41.1363833  80.6171313  54.8196993  52.8593833  76.7531313
  54.6746993  53.0153833  75.9071313  55.6856993  52.9383833  76.8311313
  54.9266993  52.8943833  76.6401313  58.9866993  45.2563833  76.4811313
  59.0866993  45.3953833  75.6261313  59.8046993  45.1963833  76.7771313
  59.1216993  45.2673833  76.3981313  55.5066993  51.6743833  83.2301313
  55.4276993  50.8643833  82.9141313  55.0626993  52.1613833  82.6581313
  55.4296993  51.6263833  83.0991313  61.1076993  47.7933833  75.7131313
  61.8246993  47.4463833  75.3571313  61.0736993  48.5933833  75.3651313
  61.2086993  47.8603833  75.6091313  53.0786993  53.9183833  86.8111313
  53.5716993  53.8623833  87.5291313  53.2666993  53.1853833  86.3761313
  53.1796993  53.8013833  86.8531313  62.3256993  43.3503833  64.6228903
  61.8016993  43.9463833  64.9858903  62.7226993  42.9823833  65.3068903
  62.3066993  43.3843833  64.7778903  52.1946993  47.4903833  60.0788903
  51.7536993  47.6083833  60.8218903  51.9116993  46.7153833  59.7938903
  52.0876993  47.3933833  60.1468903  51.9376993  41.2823833  56.5858903
  51.1596993  41.4443833  56.2258903  51.9766993  40.4113833  56.6078903
  51.8286993  41.1773833  56.5358903  55.0766993  46.5453833  55.2578903
  54.6846993  46.1743833  54.5718903  54.9966993  45.9473833  55.8868903
  55.0066993  46.4023833  55.2488903  54.7036993  48.1863833  59.1578903
  55.3116993  48.0163833  59.7608903  53.9526993  48.0463833  59.5788903
  54.6826993  48.1403833  59.3088903  58.9856993  37.5213833  59.1068903
  58.9156993  38.1983833  58.5608903  59.7266993  37.1333833  58.8578903
  59.0846993  37.5643833  58.9888903  53.5946993  51.2773833  55.2348903
  54.0616993  51.3613833  54.5028903  54.0496993  50.6993833  55.7038903
  53.7306993  51.2043833  55.1958903  52.1346993  50.2253833  66.3338903
  52.2636993  49.9453833  67.1498903  51.5246993  49.6843833  66.0248903
  52.0636993  50.1043833  66.4088903  58.7086993  47.7503833  71.4008903
  58.4726993  47.7473833  72.2408903  57.9606993  47.6023833  70.9768903
  58.5626993  47.7273833  71.4618903  53.5806993  44.7463833  60.5358903
  53.1186993  44.3543833  59.9088903  54.2806993  44.2333833  60.6278903
  53.6156993  44.6133833  60.4568903  58.0886993  40.3563833  65.8828903
  58.7666993  40.3743833  65.3338903  58.0436993  39.5203833  66.1278903
  58.1816993  40.2353833  65.8378903  58.6906993  50.9423833  68.6638903
  58.8286993  51.7023833  68.2568903  59.4816993  50.5773833  68.6908903
  58.8276993  51.0013833  68.6078903  55.5816993  42.8463833  60.5588903
  56.3986993  42.6593833  60.8018903  55.1046993  42.2323833  60.9548903
  55.6316993  42.7283833  60.6538903  59.7856993  48.8273833  63.1688903
  60.1336993  48.0283833  63.1988903  60.4506993  49.3313833  62.9138903
  59.9356993  48.7833833  63.1358903  59.8426993  48.2763833  59.3798903
  60.1736993  47.6323833  59.8658903  60.0826993  48.0653833  58.5688903
  59.9266993  48.1503833  59.3318903  61.8106993  42.4073833  70.7188903
  60.9626993  42.3083833  70.5408903  61.8396993  43.1523833  71.1728903
  61.6896993  42.5033833  70.7598903  56.1786993  37.9403833  59.8248903
  55.8826993  38.4413833  59.1748903  57.0456993  38.0183833  59.7678903
  56.2626993  38.0263833  59.7208903  59.1576993  37.0823833  62.0478903
  59.2306993  37.9423833  62.1768903  59.1196993  37.0073833  61.1798903
  59.1626993  37.1983833  61.9388903  52.0366993  42.5073833  63.5488903
  51.7806993  43.3383833  63.4738903  51.3726993  42.1243833  63.9658903
  51.9006993  42.5733833  63.5998903  51.9466993  52.2173833  61.4488903
  51.3546993  52.7753833  61.1358903  52.3726993  51.9483833  60.7368903
  51.9226993  52.2593833  61.2978903  57.7866993  50.0613833  58.9288903
  57.2076993  49.7863833  59.5208903  58.4106993  49.4523833  58.9538903
  57.7936993  49.9313833  59.0198903  62.0976993  52.7413833  58.4408903
  62.3116993  53.2683833  59.1028903  62.8646993  52.5673833  58.0618903
  62.2426993  52.7933833  58.4828903  55.0656993  37.3243833  64.0398903
  54.5446993  36.6963833  63.7318903  55.6566993  36.8873833  64.5108903
  55.0766993  37.1663833  64.0638903  58.3716993  39.4573833  73.3378903
  58.4886993  39.0033833  72.6018903  58.6596993  40.2553833  73.1348903
  58.4316993  39.5083833  73.1988903  53.4916993  50.8873833  59.3798903
  54.1476993  50.3123833  59.3948903  53.8806993  51.6363833  59.1588903
  53.6466993  50.9123833  59.3498903  54.1046993  39.0543833  72.3218903
  53.3266993  38.6643833  72.2498903  54.5956993  38.6423833  71.7308903
  54.0616993  38.9353833  72.2238903  54.3096993  49.3743833  62.8798903
  54.7326993  49.0183833  62.2058903  54.6336993  48.9523833  63.5718903
  54.4196993  49.2593833  62.8828903  57.5406993  52.2263833  62.1758903
  58.3846993  52.3303833  61.9808903  57.2436993  53.0443833  62.2438903
  57.6216993  52.3623833  62.1568903  60.7536993  36.6973833  71.4898903
  60.9316993  35.8883833  71.2148903  60.6106993  37.1383833  70.7508903
  60.7586993  36.6433833  71.3398903  61.3476993  41.6233833  60.2628903
  61.6346993  41.3913833  59.4728903  62.0796993  41.7023833  60.7318903
  61.4976993  41.6003833  60.2158903  62.0696993  41.9623833  55.3838903
  62.3506993  42.7503833  55.6328903  61.2936993  42.1273833  55.0208903
  61.9966993  42.1033833  55.3668903  56.5386993  53.4453833  67.9158903
  56.8306993  53.3783833  68.7358903  55.9126993  52.8403833  67.8708903
  56.4896993  53.3463833  68.0308903  51.4526993  39.6023833  69.9078903
  51.4486993  40.1893833  70.5538903  52.0466993  39.9143833  69.3508903
  51.5396993  39.7353833  69.9208903  60.9286993  50.1333833  55.1998903
  60.7476993  50.6783833  55.8568903  61.6946993  50.4233833  54.8988903
  61.0146993  50.2573833  55.2528903  52.3896993  39.1973833  58.8228903
  52.2756993  38.3333833  58.8538903  51.9146993  39.4913833  59.4928903
  52.3026993  39.1133833  58.9258903  54.5316993  51.6073833  67.0378903
  53.8336993  51.0993833  67.1638903  54.7916993  51.4023833  66.2298903
  54.4666993  51.5023833  66.9368903  61.6936993  40.4053833  57.5678903
  61.1856993  39.7433833  57.3138903  61.7456993  40.9093833  56.8578903
  61.6266993  40.3823833  57.4258903  62.2426993  53.1003833  67.9478903
  63.0106993  53.0203833  67.5418903  61.6596993  52.9793833  67.3098903
  62.2696993  53.0703833  67.7938903  61.6936993  37.3463833  57.4588903
  61.2386993  36.9443833  56.8328903  62.4666993  37.5013833  57.0838903
  61.7406993  37.3103833  57.3108903  60.2916993  39.7133833  61.9808903
  60.3656993  40.2813833  61.3228903  60.4126993  40.2053833  62.6908903
  60.3196993  39.8703833  61.9888903  55.8926993  50.4583833  69.6048903
  56.7336993  50.5213833  69.3828903  55.8556993  50.8553833  70.3808903
  56.0116993  50.5263833  69.6868903  54.8996993  35.5363833  60.3288903
  55.4356993  36.2243833  60.3188903  54.9026993  35.2623833  59.5008903
  54.9786993  35.5973833  60.2048903  57.8556993  45.9693833  64.3538903
  58.0276993  45.7593833  65.1828903  57.2006993  45.4353833  64.1378903
  57.7846993  45.8593833  64.4448903  58.6056993  45.9073833  66.9438903
  58.6586993  46.7543833  67.1458903  58.3206993  45.5373833  67.6808903
  58.5716993  45.9773833  67.0818903  51.4266993  50.2783833  73.1548903
  52.1826993  50.6273833  73.4128903  51.6036993  49.4253833  73.0978903
  51.5646993  50.2033833  73.1848903  55.3476993  39.3463833  61.9828903
  55.6196993  38.9163833  61.2748903  55.1716993  38.7103833  62.5538903
  55.3616993  39.1893833  61.9628903  55.1716993  46.7733833  61.5318903
  56.0226993  46.6933833  61.3588903  54.8146993  46.0913833  61.1198903
  55.2446993  46.6603833  61.4448903  53.9386993  53.4983833  62.7688903
  53.2656993  53.0003833  62.5238903  54.3416993  53.6833833  62.0178903
  53.8986993  53.4523833  62.6218903  53.4886993  40.4483833  65.0648903
  54.3316993  40.6683833  65.0218903  53.0996993  41.0213833  64.5338903
  53.5556993  40.5653833  64.9798903  57.5396993  46.7803833  59.7668903
  58.2526993  47.2753833  59.8568903  57.7616993  46.2133833  59.1408903
  57.6776993  46.7693833  59.6878903  51.6956993  48.4233833  63.0868903
  51.0286993  48.9113833  63.3628903  52.3756993  48.9683833  63.1158903
  51.6976993  48.5753833  63.1318903  59.3426993  42.1333833  73.1828903
  58.8586993  42.7103833  73.6248903  59.3146993  42.4283833  72.3618903
  59.2666993  42.2623833  73.1268903  51.7616993  45.1073833  58.1898903
  51.5766993  44.2683833  58.3418903  52.4206993  45.0713833  57.6198903
  51.8316993  44.9783833  58.1278903  62.0626993  50.4833833  62.0938903
  61.5396993  51.1173833  61.8008903  62.3726993  50.1193833  61.3648903
  62.0306993  50.5233833  61.9428903  51.9336993  49.2713833  57.7648903
  52.4856993  49.8403833  58.1288903  51.7016993  48.7563833  58.4298903
  51.9806993  49.2793833  57.9168903  56.1376993  48.2713833  64.8538903
  56.6046993  48.5603833  65.5318903  56.7096993  47.7933833  64.3998903
  56.2916993  48.2433833  64.8868903  51.7636993  47.7203833  55.3928903
  52.5196993  47.2883833  55.4508903  51.7786993  48.2523833  56.0838903
  51.8776993  47.7353833  55.5038903  52.7036993  45.9413833  63.3978903
  53.1346993  45.8123833  62.6508903  52.4986993  46.7893833  63.3718903
  52.7366993  46.0473833  63.2838903  59.0496993  39.5053833  57.0478903
  59.0476993  39.3883833  56.1828903  58.8686993  40.3533833  57.1398903
  59.0226993  39.6133833  56.9338903  56.7876993  49.4573833  61.6798903
  56.9136993  50.3003833  61.8668903  57.4556993  49.0583833  62.0758903
  56.9056993  49.5233833  61.7658903  54.9176993  42.9403833  71.5418903
  54.3816993  42.4343833  72.0098903  54.9376993  42.5503833  70.7618903
  54.8406993  42.8073833  71.4958903  55.4026993  42.3373833  56.6818903
  55.2746993  41.8893833  57.4198903  54.8206993  41.9953833  56.1298903
  55.2976993  42.2203833  56.7098903  55.5696993  44.1673833  63.2808903
  54.7886993  44.1083833  62.8978903  55.6416993  43.4153833  63.7178903
  55.4646993  44.0483833  63.2888903  55.9996993  43.9043833  66.7488903
  56.0246993  43.2293833  66.1978903  55.3536993  44.4003833  66.4368903
  55.9086993  43.8773833  66.6218903  60.0996993  52.6813833  66.1408903
  59.8226993  52.0403833  65.6178903  59.8916993  53.4073833  65.7028903
  60.0286993  52.6943833  65.9988903  62.5396993  37.5233833  68.5738903
  62.6886993  36.6983833  68.3308903  62.9186993  37.5783833  69.3578903
  62.6176993  37.4093833  68.6538903  53.7986993  45.2593833  72.3078903
  53.7616993  45.7603833  71.5938903  54.1296993  44.5073833  72.0128903
  53.8416993  45.2213833  72.1588903  59.6976993  50.3093833  71.7428903
  60.0516993  50.1313833  72.5198903  59.2616993  49.5803833  71.5438903
  59.6856993  50.1753833  71.8288903  60.6696993  41.0563833  64.3808903
  61.1496993  41.7553833  64.5888903  61.0426993  40.4093833  64.8318903
  60.7956993  41.0643833  64.4778903  62.8586993  44.2253833  56.6548903
  62.8506993  44.9473833  56.1648903  62.2196993  44.3603833  57.2318903
  62.7636993  44.3523833  56.6678903  57.7806993  52.8243833  58.3278903
  57.6336993  52.0483833  58.6988903  58.4696993  52.6773833  57.8128903
  57.8606993  52.6873833  58.3068903  57.4516993  36.5673833  56.3158903
  57.5486993  36.4603833  57.1768903  56.7436993  37.0733833  56.2508903
  57.3616993  36.6263833  56.4338903  60.0726993  52.3403833  56.7298903
  60.6946993  52.5033833  57.3198903  60.1086993  53.0313833  56.1978903
  60.1696993  52.4663833  56.7388903  54.5736993  44.8743833  57.5588903
  54.8976993  44.0953833  57.3368903  55.2196993  45.2423833  58.0138903
  54.7166993  44.8133833  57.5928903  51.5706993  36.5353833  58.5268903
  51.6996993  35.8273833  58.0348903  51.2036993  36.2173833  59.2518903
  51.5356993  36.3833833  58.5618903  61.2636993  44.2163833  58.9838903
  61.3226993  44.8663833  59.5628903  61.0746993  43.5203833  59.4748903
  61.2446993  44.2093833  59.1418903  55.7596993  38.7333833  55.4958903
  55.2486993  38.7863833  54.7898903  56.5436993  38.9733833  55.1998903
  55.7996993  38.7763833  55.3478903  60.4866993  46.2633833  63.4148903
  59.6396993  46.0693833  63.4958903  60.8106993  46.0983833  64.2078903
  60.4086993  46.2103833  63.5438903  57.2386993  52.9933833  54.3008903
  57.6776993  52.2963833  54.5888903  57.4456993  53.6173833  54.8738903
  57.3346993  52.9823833  54.4278903  54.3346993  45.9563833  65.7308903
  55.0566993  46.4443833  65.6938903  54.0646993  45.9263833  64.9018903
  54.4016993  46.0243833  65.6028903  57.5646993  41.1273833  62.4658903
  58.4106993  40.9373833  62.5638903  57.1946993  40.3503833  62.3278903
  57.6346993  40.9843833  62.4598903  52.3856993  42.4653833  59.1208903
  52.8746993  42.1733833  59.7818903  52.5146993  41.8723833  58.4938903
  52.4766993  42.3343833  59.1258903  56.9106993  43.8993833  54.6068903
  56.3006993  43.4943833  55.0808903  56.5246993  44.0173833  53.8338903
  56.7636993  43.8563833  54.5628903  53.7296993  47.0083833  70.0088903
  53.3086993  46.4903833  69.4478903  53.3776993  47.7943833  69.8658903
  53.6156993  47.0483833  69.9048903  58.3656993  42.3603833  57.3168903
  58.6376993  43.1863833  57.3838903  57.5026993  42.4353833  57.2208903
  58.2786993  42.4933833  57.3118903  51.8456993  38.3303833  63.8528903
  51.8896993  38.6743833  63.0518903  52.6006993  38.5673833  64.2198903
  51.9636993  38.4163833  63.7888903  58.4686993  48.8193833  66.6268903
  58.1706993  49.4113833  67.1938903  58.5236993  49.2613833  65.8778903
  58.4326993  48.9723833  66.5998903  56.4476993  47.7693833  70.0248903
  55.6416993  47.4793833  70.1918903  56.3586993  48.6373833  70.0308903
  56.3156993  47.8543833  70.0498903  60.9846993  45.2423833  66.1178903
  61.4606993  45.6163833  66.7458903  60.1616993  45.3763833  66.3768903
  60.9336993  45.3173833  66.2488903  57.6946993  40.8453833  68.8588903
  57.8556993  40.1013833  69.2858903  57.6496993  40.5963833  68.0238903
  57.7116993  40.6983833  68.7988903  60.2486993  52.6353833  61.3458903
  60.7946993  53.3143833  61.3998903  59.8986993  52.7173833  60.5508903
  60.2776993  52.7483833  61.2358903  59.4466993  36.6533833  68.7388903
  60.1516993  36.9733833  68.3368903  59.6876993  35.8463833  68.9658903
  59.5856993  36.5813833  68.7128903  58.4316993  50.8633833  64.7348903
  57.8076993  51.4453833  64.5528903  58.6796993  50.5773833  63.9488903
  58.3756993  50.9073833  64.5918903  60.0256993  45.6393833  54.6498903
  59.2206993  45.4623833  54.3648903  59.9926993  46.4903833  54.8418903
  59.9016993  45.7383833  54.6368903  55.9556993  41.7063833  64.7998903
  56.3956993  41.6033833  64.0538903  56.5006993  41.3933833  65.4048903
  56.1006993  41.6453833  64.7788903  61.0846993  52.5123833  70.6148903
  61.5626993  51.9123833  70.1988903  60.7336993  52.0693833  71.2798903
  61.1036993  52.3583833  70.6518903  59.5026993  36.6913833  64.8468903
  58.6766993  36.5423833  65.0838903  59.4626993  36.7263833  63.9758903
  59.3746993  36.6743833  64.7528903  61.1436993  47.7313833  69.6348903
  60.3486993  47.6673833  69.9858903  61.2146993  48.5783833  69.4398903
  61.0366993  47.8463833  69.6578903  52.0676993  37.0893833  70.8818903
  51.9276993  37.8843833  70.5508903  51.2816993  36.8463833  71.1708903
  51.9306993  37.1713833  70.8758903  56.9736993  53.9383833  64.9518903
  56.9846993  53.9973833  65.8218903  56.5486993  53.1913833  64.8018903
  56.9126993  53.8363833  65.0578903  55.1316993  39.8333833  58.1068903
  55.2576993  39.5043833  57.3088903  54.3196993  39.5843833  58.3058903
  55.0306993  39.7483833  58.0188903  61.4106993  46.2603833  60.7158903
  61.1126993  45.9453833  61.4728903  62.1056993  46.7333833  60.9508903
  61.4696993  46.2833833  60.8628903  61.6326993  50.3783833  68.7428903
  62.3196993  50.2643833  69.2678903  61.7666993  51.1693833  68.3988903
  61.7536993  50.4783833  68.7698903  53.7376993  53.4363833  70.3938903
  53.0836993  52.8673833  70.4918903  53.3626993  54.2093833  70.5448903
  53.5856993  53.4663833  70.4308903  62.2556993  44.8423833  72.3168903
  62.5786993  45.5283833  71.8848903  61.5516993  45.1653833  72.7188903
  62.1986993  44.9913833  72.3118903  62.0406993  48.3063833  66.1758903
  61.3466993  48.7083833  66.5188903  62.7176993  48.7393833  66.5148903
  62.0376993  48.4293833  66.2768903  55.1086993  41.8443833  68.5228903
  55.4836993  42.4633833  68.0358903  55.7826993  41.3703833  68.8078903
  55.2636993  41.8663833  68.4928903  52.8836993  40.2923833  67.7978903
  52.9606993  40.1233833  66.9448903  53.6296993  40.6983833  67.9948903
  53.0046993  40.3273833  67.7008903  55.4376993  37.7023833  70.2088903
  55.3566993  36.8583833  70.4148903  55.1236993  37.7463833  69.3958903
  55.3796993  37.5843833  70.1188903  62.3626993  49.8973833  59.3448903
  62.1576993  50.7303833  59.1858903  61.5876993  49.5153833  59.4668903
  62.2176993  49.9643833  59.3398903  52.2806993  45.5183833  68.0218903
  52.6006993  45.7373833  67.2408903  52.1806993  44.6533833  67.9668903
  52.3126993  45.4233833  67.8988903  53.7366993  41.4543833  54.6398903
  53.0646993  41.4683833  55.1958903  53.8316993  40.6063833  54.4558903
  53.6516993  41.3313833  54.6948903  62.4176993  38.0683833  62.2298903
  61.7176993  38.5863833  62.1738903  62.4556993  37.6883833  61.4458903
  62.3196993  38.0893833  62.1058903  57.7246993  50.1593833  55.7538903
  58.1656993  50.2393833  56.5018903  56.9196993  49.9433833  56.0118903
  57.6706993  50.1393833  55.9028903  57.0436993  44.8103833  69.4068903
  56.6476993  45.5843833  69.4818903  56.6376993  44.4373833  68.7308903
  56.9256993  44.8693833  69.3178903  55.0536993  49.2293833  56.3548903
  54.8096993  48.9223833  57.1348903  55.0206993  48.5263833  55.8388903
  55.0126993  49.0803833  56.3938903  57.8726993  47.4743833  55.0978903
  57.0546993  47.2063833  55.2378903  57.8446993  48.3263833  55.2828903
  57.7476993  47.5613833  55.1458903  57.4726993  37.7873833  66.8568903
  56.6086993  37.8713833  66.9368903  57.6926993  37.2733833  67.5258903
  57.3776993  37.7243833  66.9678903  61.5756993  38.5353833  65.2308903
  60.8386993  38.0813833  65.3438903  62.1466993  38.1333833  65.7538903
  61.5506993  38.4083833  65.3248903  59.0786993  42.8643833  70.4348903
  58.7566993  42.2883833  69.8648903  58.7196993  43.6193833  70.1888903
  58.9786993  42.8903833  70.3148903  59.8746993  36.1163833  55.0618903
  59.9526993  36.3633833  54.2288903  59.1316993  36.4933833  55.3198903
  59.7766993  36.2083833  54.9768903  57.5136993  53.2203833  70.6828903
  57.5546993  53.3463833  71.5458903  58.1646993  52.6603833  70.5268903
  57.6156993  53.1563833  70.7878903  54.6926993  37.8703833  67.5048903
  54.3496993  37.1033833  67.2708903  53.9976993  38.3943833  67.5688903
  54.5396993  37.8343833  67.4798903  55.1066993  51.6033833  72.0428903
  55.7016993  52.0343833  72.5148903  54.7426993  52.2273833  71.5538903
  55.1406993  51.7593833  72.0398903  53.3456993  41.1843833  61.4608903
  52.9776993  41.4863833  62.1918903  53.8796993  40.5553833  61.7448903
  53.3696993  41.1363833  61.6108903  53.0336993  49.5923833  68.9718903
  52.4596993  50.0083833  69.4808903  53.7666993  50.0573833  69.0668903
  53.0576993  49.7223833  69.0608903  54.8196993  52.8593833  57.7468903
  54.6746993  53.0153833  56.9008903  55.6856993  52.9383833  57.8248903
  54.9266993  52.8943833  57.6338903  58.9866993  45.2563833  57.4748903
  59.0866993  45.3953833  56.6198903  59.8046993  45.1963833  57.7708903
  59.1216993  45.2673833  57.3918903  58.1256993  38.2313833  70.5908903
  58.3596993  37.6553833  69.9778903  57.2836993  38.0503833  70.7318903
  58.0356993  38.1193833  70.5208903  55.5066993  51.6743833  64.2238903
  55.4276993  50.8643833  63.9078903  55.0626993  52.1613833  63.6518903
  55.4296993  51.6263833  64.0928903  61.1076993  47.7933833  56.7068903
  61.8246993  47.4463833  56.3508903  61.0736993  48.5933833  56.3588903
  61.2086993  47.8603833  56.6028903  53.0786993  53.9183833  67.8048903
  53.5716993  53.8623833  68.5228903  53.2666993  53.1853833  67.3698903
  53.1796993  53.8013833  67.8468903  62.3256993  43.3503833  45.6166493
  61.8016993  43.9463833  45.9796493  62.7226993  42.9823833  46.3006493
  62.3066993  43.3843833  45.7716493  52.1946993  47.4903833  41.0726493
  51.7536993  47.6083833  41.8156493  51.9116993  46.7153833  40.7876493
  52.0876993  47.3933833  41.1406493  51.9376993  41.2823833  37.5796493
  51.1596993  41.4443833  37.2196493  51.9766993  40.4113833  37.6016493
  51.8286993  41.1773833  37.5296493  55.0766993  46.5453833  36.2516493
  54.6846993  46.1743833  35.5656493  54.9966993  45.9473833  36.8806493
  55.0066993  46.4023833  36.2426493  54.7036993  48.1863833  40.1516493
  55.3116993  48.0163833  40.7546493  53.9526993  48.0463833  40.5726493
  54.6826993  48.1403833  40.3026493  58.9856993  37.5213833  40.1006493
  58.9156993  38.1983833  39.5546493  59.7266993  37.1333833  39.8516493
  59.0846993  37.5643833  39.9826493  53.5946993  51.2773833  36.2286493
  54.0616993  51.3613833  35.4966493  54.0496993  50.6993833  36.6976493
  53.7306993  51.2043833  36.1896493  52.1346993  50.2253833  47.3276493
  52.2636993  49.9453833  48.1436493  51.5246993  49.6843833  47.0186493
  52.0636993  50.1043833  47.4026493  58.7086993  47.7503833  52.3946493
  58.4726993  47.7473833  53.2346493  57.9606993  47.6023833  51.9706493
  58.5626993  47.7273833  52.4556493  53.5806993  44.7463833  41.5296493
  53.1186993  44.3543833  40.9026493  54.2806993  44.2333833  41.6216493
  53.6156993  44.6133833  41.4506493  58.0886993  40.3563833  46.8766493
  58.7666993  40.3743833  46.3276493  58.0436993  39.5203833  47.1216493
  58.1816993  40.2353833  46.8316493  58.6906993  50.9423833  49.6576493
  58.8286993  51.7023833  49.2506493  59.4816993  50.5773833  49.6846493
  58.8276993  51.0013833  49.6016493  55.5816993  42.8463833  41.5526493
  56.3986993  42.6593833  41.7956493  55.1046993  42.2323833  41.9486493
  55.6316993  42.7283833  41.6476493  59.7856993  48.8273833  44.1626493
  60.1336993  48.0283833  44.1926493  60.4506993  49.3313833  43.9076493
  59.9356993  48.7833833  44.1296493  59.8426993  48.2763833  40.3736493
  60.1736993  47.6323833  40.8596493  60.0826993  48.0653833  39.5626493
  59.9266993  48.1503833  40.3256493  61.8106993  42.4073833  51.7126493
  60.9626993  42.3083833  51.5346493  61.8396993  43.1523833  52.1666493
  61.6896993  42.5033833  51.7536493  56.1786993  37.9403833  40.8186493
  55.8826993  38.4413833  40.1686493  57.0456993  38.0183833  40.7616493
  56.2626993  38.0263833  40.7146493  59.1576993  37.0823833  43.0416493
  59.2306993  37.9423833  43.1706493  59.1196993  37.0073833  42.1736493
  59.1626993  37.1983833  42.9326493  52.0366993  42.5073833  44.5426493
  51.7806993  43.3383833  44.4676493  51.3726993  42.1243833  44.9596493
  51.9006993  42.5733833  44.5936493  51.9466993  52.2173833  42.4426493
  51.3546993  52.7753833  42.1296493  52.3726993  51.9483833  41.7306493
  51.9226993  52.2593833  42.2916493  57.7866993  50.0613833  39.9226493
  57.2076993  49.7863833  40.5146493  58.4106993  49.4523833  39.9476493
  57.7936993  49.9313833  40.0136493  62.0976993  52.7413833  39.4346493
  62.3116993  53.2683833  40.0966493  62.8646993  52.5673833  39.0556493
  62.2426993  52.7933833  39.4766493  55.0656993  37.3243833  45.0336493
  54.5446993  36.6963833  44.7256493  55.6566993  36.8873833  45.5046493
  55.0766993  37.1663833  45.0576493  58.3716993  39.4573833  54.3316493
  58.4886993  39.0033833  53.5956493  58.6596993  40.2553833  54.1286493
  58.4316993  39.5083833  54.1926493  53.4916993  50.8873833  40.3736493
  54.1476993  50.3123833  40.3886493  53.8806993  51.6363833  40.1526493
  53.6466993  50.9123833  40.3436493  54.1046993  39.0543833  53.3156493
  53.3266993  38.6643833  53.2436493  54.5956993  38.6423833  52.7246493
  54.0616993  38.9353833  53.2176493  54.3096993  49.3743833  43.8736493
  54.7326993  49.0183833  43.1996493  54.6336993  48.9523833  44.5656493
  54.4196993  49.2593833  43.8766493  57.5406993  52.2263833  43.1696493
  58.3846993  52.3303833  42.9746493  57.2436993  53.0443833  43.2376493
  57.6216993  52.3623833  43.1506493  60.7536993  36.6973833  52.4836493
  60.9316993  35.8883833  52.2086493  60.6106993  37.1383833  51.7446493
  60.7586993  36.6433833  52.3336493  61.3476993  41.6233833  41.2566493
  61.6346993  41.3913833  40.4666493  62.0796993  41.7023833  41.7256493
  61.4976993  41.6003833  41.2096493  62.0696993  41.9623833  36.3776493
  62.3506993  42.7503833  36.6266493  61.2936993  42.1273833  36.0146493
  61.9966993  42.1033833  36.3606493  56.5386993  53.4453833  48.9096493
  56.8306993  53.3783833  49.7296493  55.9126993  52.8403833  48.8646493
  56.4896993  53.3463833  49.0246493  51.4526993  39.6023833  50.9016493
  51.4486993  40.1893833  51.5476493  52.0466993  39.9143833  50.3446493
  51.5396993  39.7353833  50.9146493  60.9286993  50.1333833  36.1936493
  60.7476993  50.6783833  36.8506493  61.6946993  50.4233833  35.8926493
  61.0146993  50.2573833  36.2466493  52.3896993  39.1973833  39.8166493
  52.2756993  38.3333833  39.8476493  51.9146993  39.4913833  40.4866493
  52.3026993  39.1133833  39.9196493  54.5316993  51.6073833  48.0316493
  53.8336993  51.0993833  48.1576493  54.7916993  51.4023833  47.2236493
  54.4666993  51.5023833  47.9306493  61.6936993  40.4053833  38.5616493
  61.1856993  39.7433833  38.3076493  61.7456993  40.9093833  37.8516493
  61.6266993  40.3823833  38.4196493  62.2426993  53.1003833  48.9416493
  63.0106993  53.0203833  48.5356493  61.6596993  52.9793833  48.3036493
  62.2696993  53.0703833  48.7876493  61.6936993  37.3463833  38.4526493
  61.2386993  36.9443833  37.8266493  62.4666993  37.5013833  38.0776493
  61.7406993  37.3103833  38.3046493  60.2916993  39.7133833  42.9746493
  60.3656993  40.2813833  42.3166493  60.4126993  40.2053833  43.6846493
  60.3196993  39.8703833  42.9826493  55.8926993  50.4583833  50.5986493
  56.7336993  50.5213833  50.3766493  55.8556993  50.8553833  51.3746493
  56.0116993  50.5263833  50.6806493  54.8996993  35.5363833  41.3226493
  55.4356993  36.2243833  41.3126493  54.9026993  35.2623833  40.4946493
  54.9786993  35.5973833  41.1986493  57.8556993  45.9693833  45.3476493
  58.0276993  45.7593833  46.1766493  57.2006993  45.4353833  45.1316493
  57.7846993  45.8593833  45.4386493  58.6056993  45.9073833  47.9376493
  58.6586993  46.7543833  48.1396493  58.3206993  45.5373833  48.6746493
  58.5716993  45.9773833  48.0756493  51.4266993  50.2783833  54.1486493
  52.1826993  50.6273833  54.4066493  51.6036993  49.4253833  54.0916493
  51.5646993  50.2033833  54.1786493  55.3476993  39.3463833  42.9766493
  55.6196993  38.9163833  42.2686493  55.1716993  38.7103833  43.5476493
  55.3616993  39.1893833  42.9566493  55.1716993  46.7733833  42.5256493
  56.0226993  46.6933833  42.3526493  54.8146993  46.0913833  42.1136493
  55.2446993  46.6603833  42.4386493  53.9386993  53.4983833  43.7626493
  53.2656993  53.0003833  43.5176493  54.3416993  53.6833833  43.0116493
  53.8986993  53.4523833  43.6156493  53.4886993  40.4483833  46.0586493
  54.3316993  40.6683833  46.0156493  53.0996993  41.0213833  45.5276493
  53.5556993  40.5653833  45.9736493  57.5396993  46.7803833  40.7606493
  58.2526993  47.2753833  40.8506493  57.7616993  46.2133833  40.1346493
  57.6776993  46.7693833  40.6816493  51.6956993  48.4233833  44.0806493
  51.0286993  48.9113833  44.3566493  52.3756993  48.9683833  44.1096493
  51.6976993  48.5753833  44.1256493  59.3426993  42.1333833  54.1766493
  58.8586993  42.7103833  54.6186493  59.3146993  42.4283833  53.3556493
  59.2666993  42.2623833  54.1206493  51.7616993  45.1073833  39.1836493
  51.5766993  44.2683833  39.3356493  52.4206993  45.0713833  38.6136493
  51.8316993  44.9783833  39.1216493  62.0626993  50.4833833  43.0876493
  61.5396993  51.1173833  42.7946493  62.3726993  50.1193833  42.3586493
  62.0306993  50.5233833  42.9366493  51.9336993  49.2713833  38.7586493
  52.4856993  49.8403833  39.1226493  51.7016993  48.7563833  39.4236493
  51.9806993  49.2793833  38.9106493  56.1376993  48.2713833  45.8476493
  56.6046993  48.5603833  46.5256493  56.7096993  47.7933833  45.3936493
  56.2916993  48.2433833  45.8806493  51.7636993  47.7203833  36.3866493
  52.5196993  47.2883833  36.4446493  51.7786993  48.2523833  37.0776493
  51.8776993  47.7353833  36.4976493  52.7036993  45.9413833  44.3916493
  53.1346993  45.8123833  43.6446493  52.4986993  46.7893833  44.3656493
  52.7366993  46.0473833  44.2776493  59.0496993  39.5053833  38.0416493
  59.0476993  39.3883833  37.1766493  58.8686993  40.3533833  38.1336493
  59.0226993  39.6133833  37.9276493  56.7876993  49.4573833  42.6736493
  56.9136993  50.3003833  42.8606493  57.4556993  49.0583833  43.0696493
  56.9056993  49.5233833  42.7596493  54.9176993  42.9403833  52.5356493
  54.3816993  42.4343833  53.0036493  54.9376993  42.5503833  51.7556493
  54.8406993  42.8073833  52.4896493  55.4026993  42.3373833  37.6756493
  55.2746993  41.8893833  38.4136493  54.8206993  41.9953833  37.1236493
  55.2976993  42.2203833  37.7036493  55.5696993  44.1673833  44.2746493
  54.7886993  44.1083833  43.8916493  55.6416993  43.4153833  44.7116493
  55.4646993  44.0483833  44.2826493  55.9996993  43.9043833  47.7426493
  56.0246993  43.2293833  47.1916493  55.3536993  44.4003833  47.4306493
  55.9086993  43.8773833  47.6156493  60.0996993  52.6813833  47.1346493
  59.8226993  52.0403833  46.6116493  59.8916993  53.4073833  46.6966493
  60.0286993  52.6943833  46.9926493  62.5396993  37.5233833  49.5676493
  62.6886993  36.6983833  49.3246493  62.9186993  37.5783833  50.3516493
  62.6176993  37.4093833  49.6476493  53.7986993  45.2593833  53.3016493
  53.7616993  45.7603833  52.5876493  54.1296993  44.5073833  53.0066493
  53.8416993  45.2213833  53.1526493  59.6976993  50.3093833  52.7366493
  60.0516993  50.1313833  53.5136493  59.2616993  49.5803833  52.5376493
  59.6856993  50.1753833  52.8226493  60.6696993  41.0563833  45.3746493
  61.1496993  41.7553833  45.5826493  61.0426993  40.4093833  45.8256493
  60.7956993  41.0643833  45.4716493  62.8586993  44.2253833  37.6486493
  62.8506993  44.9473833  37.1586493  62.2196993  44.3603833  38.2256493
  62.7636993  44.3523833  37.6616493  57.7806993  52.8243833  39.3216493
  57.6336993  52.0483833  39.6926493  58.4696993  52.6773833  38.8066493
  57.8606993  52.6873833  39.3006493  57.4516993  36.5673833  37.3096493
  57.5486993  36.4603833  38.1706493  56.7436993  37.0733833  37.2446493
  57.3616993  36.6263833  37.4276493  60.0726993  52.3403833  37.7236493
  60.6946993  52.5033833  38.3136493  60.1086993  53.0313833  37.1916493
  60.1696993  52.4663833  37.7326493  54.5736993  44.8743833  38.5526493
  54.8976993  44.0953833  38.3306493  55.2196993  45.2423833  39.0076493
  54.7166993  44.8133833  38.5866493  51.5706993  36.5353833  39.5206493
  51.6996993  35.8273833  39.0286493  51.2036993  36.2173833  40.2456493
  51.5356993  36.3833833  39.5556493  61.2636993  44.2163833  39.9776493
  61.3226993  44.8663833  40.5566493  61.0746993  43.5203833  40.4686493
  61.2446993  44.2093833  40.1356493  55.7596993  38.7333833  36.4896493
  55.2486993  38.7863833  35.7836493  56.5436993  38.9733833  36.1936493
  55.7996993  38.7763833  36.3416493  60.4866993  46.2633833  44.4086493
  59.6396993  46.0693833  44.4896493  60.8106993  46.0983833  45.2016493
  60.4086993  46.2103833  44.5376493  57.2386993  52.9933833  35.2946493
  57.6776993  52.2963833  35.5826493  57.4456993  53.6173833  35.8676493
  57.3346993  52.9823833  35.4216493  54.3346993  45.9563833  46.7246493
  55.0566993  46.4443833  46.6876493  54.0646993  45.9263833  45.8956493
  54.4016993  46.0243833  46.5966493  57.5646993  41.1273833  43.4596493
  58.4106993  40.9373833  43.5576493  57.1946993  40.3503833  43.3216493
  57.6346993  40.9843833  43.4536493  52.3856993  42.4653833  40.1146493
  52.8746993  42.1733833  40.7756493  52.5146993  41.8723833  39.4876493
  52.4766993  42.3343833  40.1196493  56.9106993  43.8993833  35.6006493
  56.3006993  43.4943833  36.0746493  56.5246993  44.0173833  34.8276493
  56.7636993  43.8563833  35.5566493  53.7296993  47.0083833  51.0026493
  53.3086993  46.4903833  50.4416493  53.3776993  47.7943833  50.8596493
  53.6156993  47.0483833  50.8986493  58.3656993  42.3603833  38.3106493
  58.6376993  43.1863833  38.3776493  57.5026993  42.4353833  38.2146493
  58.2786993  42.4933833  38.3056493  51.8456993  38.3303833  44.8466493
  51.8896993  38.6743833  44.0456493  52.6006993  38.5673833  45.2136493
  51.9636993  38.4163833  44.7826493  58.4686993  48.8193833  47.6206493
  58.1706993  49.4113833  48.1876493  58.5236993  49.2613833  46.8716493
  58.4326993  48.9723833  47.5936493  56.4476993  47.7693833  51.0186493
  55.6416993  47.4793833  51.1856493  56.3586993  48.6373833  51.0246493
  56.3156993  47.8543833  51.0436493  60.9846993  45.2423833  47.1116493
  61.4606993  45.6163833  47.7396493  60.1616993  45.3763833  47.3706493
  60.9336993  45.3173833  47.2426493  57.6946993  40.8453833  49.8526493
  57.8556993  40.1013833  50.2796493  57.6496993  40.5963833  49.0176493
  57.7116993  40.6983833  49.7926493  60.2486993  52.6353833  42.3396493
  60.7946993  53.3143833  42.3936493  59.8986993  52.7173833  41.5446493
  60.2776993  52.7483833  42.2296493  59.4466993  36.6533833  49.7326493
  60.1516993  36.9733833  49.3306493  59.6876993  35.8463833  49.9596493
  59.5856993  36.5813833  49.7066493  58.4316993  50.8633833  45.7286493
  57.8076993  51.4453833  45.5466493  58.6796993  50.5773833  44.9426493
  58.3756993  50.9073833  45.5856493  60.0256993  45.6393833  35.6436493
  59.2206993  45.4623833  35.3586493  59.9926993  46.4903833  35.8356493
  59.9016993  45.7383833  35.6306493  55.9556993  41.7063833  45.7936493
  56.3956993  41.6033833  45.0476493  56.5006993  41.3933833  46.3986493
  56.1006993  41.6453833  45.7726493  61.0846993  52.5123833  51.6086493
  61.5626993  51.9123833  51.1926493  60.7336993  52.0693833  52.2736493
  61.1036993  52.3583833  51.6456493  59.5026993  36.6913833  45.8406493
  58.6766993  36.5423833  46.0776493  59.4626993  36.7263833  44.9696493
  59.3746993  36.6743833  45.7466493  61.1436993  47.7313833  50.6286493
  60.3486993  47.6673833  50.9796493  61.2146993  48.5783833  50.4336493
  61.0366993  47.8463833  50.6516493  52.0676993  37.0893833  51.8756493
  51.9276993  37.8843833  51.5446493  51.2816993  36.8463833  52.1646493
  51.9306993  37.1713833  51.8696493  56.9736993  53.9383833  45.9456493
  56.9846993  53.9973833  46.8156493  56.5486993  53.1913833  45.7956493
  56.9126993  53.8363833  46.0516493  55.1316993  39.8333833  39.1006493
  55.2576993  39.5043833  38.3026493  54.3196993  39.5843833  39.2996493
  55.0306993  39.7483833  39.0126493  61.4106993  46.2603833  41.7096493
  61.1126993  45.9453833  42.4666493  62.1056993  46.7333833  41.9446493
  61.4696993  46.2833833  41.8566493  61.6326993  50.3783833  49.7366493
  62.3196993  50.2643833  50.2616493  61.7666993  51.1693833  49.3926493
  61.7536993  50.4783833  49.7636493  53.7376993  53.4363833  51.3876493
  53.0836993  52.8673833  51.4856493  53.3626993  54.2093833  51.5386493
  53.5856993  53.4663833  51.4246493  62.2556993  44.8423833  53.3106493
  62.5786993  45.5283833  52.8786493  61.5516993  45.1653833  53.7126493
  62.1986993  44.9913833  53.3056493  62.0406993  48.3063833  47.1696493
  61.3466993  48.7083833  47.5126493  62.7176993  48.7393833  47.5086493
  62.0376993  48.4293833  47.2706493  55.1086993  41.8443833  49.5166493
  55.4836993  42.4633833  49.0296493  55.7826993  41.3703833  49.8016493
  55.2636993  41.8663833  49.4866493  52.8836993  40.2923833  48.7916493
  52.9606993  40.1233833  47.9386493  53.6296993  40.6983833  48.9886493
  53.0046993  40.3273833  48.6946493  55.4376993  37.7023833  51.2026493
  55.3566993  36.8583833  51.4086493  55.1236993  37.7463833  50.3896493
  55.3796993  37.5843833  51.1126493  62.3626993  49.8973833  40.3386493
  62.1576993  50.7303833  40.1796493  61.5876993  49.5153833  40.4606493
  62.2176993  49.9643833  40.3336493  52.2806993  45.5183833  49.0156493
  52.6006993  45.7373833  48.2346493  52.1806993  44.6533833  48.9606493
  52.3126993  45.4233833  48.8926493  53.7366993  41.4543833  35.6336493
  53.0646993  41.4683833  36.1896493  53.8316993  40.6063833  35.4496493
  53.6516993  41.3313833  35.6886493  62.4176993  38.0683833  43.2236493
  61.7176993  38.5863833  43.1676493  62.4556993  37.6883833  42.4396493
  62.3196993  38.0893833  43.0996493  57.7246993  50.1593833  36.7476493
  58.1656993  50.2393833  37.4956493  56.9196993  49.9433833  37.0056493
  57.6706993  50.1393833  36.8966493  57.0436993  44.8103833  50.4006493
  56.6476993  45.5843833  50.4756493  56.6376993  44.4373833  49.7246493
  56.9256993  44.8693833  50.3116493  55.0536993  49.2293833  37.3486493
  54.8096993  48.9223833  38.1286493  55.0206993  48.5263833  36.8326493
  55.0126993  49.0803833  37.3876493  57.8726993  47.4743833  36.0916493
  57.0546993  47.2063833  36.2316493  57.8446993  48.3263833  36.2766493
  57.7476993  47.5613833  36.1396493  57.4726993  37.7873833  47.8506493
  56.6086993  37.8713833  47.9306493  57.6926993  37.2733833  48.5196493
  57.3776993  37.7243833  47.9616493  61.5756993  38.5353833  46.2246493
  60.8386993  38.0813833  46.3376493  62.1466993  38.1333833  46.7476493
  61.5506993  38.4083833  46.3186493  59.0786993  42.8643833  51.4286493
  58.7566993  42.2883833  50.8586493  58.7196993  43.6193833  51.1826493
  58.9786993  42.8903833  51.3086493  59.8746993  36.1163833  36.0556493
  59.9526993  36.3633833  35.2226493  59.1316993  36.4933833  36.3136493
  59.7766993  36.2083833  35.9706493  57.5136993  53.2203833  51.6766493
  57.5546993  53.3463833  52.5396493  58.1646993  52.6603833  51.5206493
  57.6156993  53.1563833  51.7816493  54.6926993  37.8703833  48.4986493
  54.3496993  37.1033833  48.2646493  53.9976993  38.3943833  48.5626493
  54.5396993  37.8343833  48.4736493  55.1066993  51.6033833  53.0366493
  55.7016993  52.0343833  53.5086493  54.7426993  52.2273833  52.5476493
  55.1406993  51.7593833  53.0336493  53.3456993  41.1843833  42.4546493
  52.9776993  41.4863833  43.1856493  53.8796993  40.5553833  42.7386493
  53.3696993  41.1363833  42.6046493  53.0336993  49.5923833  49.9656493
  52.4596993  50.0083833  50.4746493  53.7666993  50.0573833  50.0606493
  53.0576993  49.7223833  50.0546493  54.8196993  52.8593833  38.7406493
  54.6746993  53.0153833  37.8946493  55.6856993  52.9383833  38.8186493
  54.9266993  52.8943833  38.6276493  58.9866993  45.2563833  38.4686493
  59.0866993  45.3953833  37.6136493  59.8046993  45.1963833  38.7646493
  59.1216993  45.2673833  38.3856493  58.1256993  38.2313833  51.5846493
  58.3596993  37.6553833  50.9716493  57.2836993  38.0503833  51.7256493
  58.0356993  38.1193833  51.5146493  55.5066993  51.6743833  45.2176493
  55.4276993  50.8643833  44.9016493  55.0626993  52.1613833  44.6456493
  55.4296993  51.6263833  45.0866493  61.1076993  47.7933833  37.7006493
  61.8246993  47.4463833  37.3446493  61.0736993  48.5933833  37.3526493
  61.2086993  47.8603833  37.5966493  53.0786993  53.9183833  48.7986493
  53.5716993  53.8623833  49.5166493  53.2666993  53.1853833  48.3636493
  53.1796993  53.8013833  48.8406493  62.3256993  43.3503833  26.6104083
  61.8016993  43.9463833  26.9734083  62.7226993  42.9823833  27.2944083
  62.3066993  43.3843833  26.7654083  52.1946993  47.4903833  22.0664083
  51.7536993  47.6083833  22.8094083  51.9116993  46.7153833  21.7814083
  52.0876993  47.3933833  22.1344083  51.9376993  41.2823833  18.5734083
  51.1596993  41.4443833  18.2134083  51.9766993  40.4113833  18.5954083
  51.8286993  41.1773833  18.5234083  55.0766993  46.5453833  17.2454083
  54.6846993  46.1743833  16.5594083  54.9966993  45.9473833  17.8744083
  55.0066993  46.4023833  17.2364083  54.7036993  48.1863833  21.1454083
  55.3116993  48.0163833  21.7484083  53.9526993  48.0463833  21.5664083
  54.6826993  48.1403833  21.2964083  58.9856993  37.5213833  21.0944083
  58.9156993  38.1983833  20.5484083  59.7266993  37.1333833  20.8454083
  59.0846993  37.5643833  20.9764083  53.5946993  51.2773833  17.2224083
  54.0616993  51.3613833  16.4904083  54.0496993  50.6993833  17.6914083
  53.7306993  51.2043833  17.1834083  52.1346993  50.2253833  28.3214083
  52.2636993  49.9453833  29.1374083  51.5246993  49.6843833  28.0124083
  52.0636993  50.1043833  28.3964083  58.7086993  47.7503833  33.3884083
  58.4726993  47.7473833  34.2284083  57.9606993  47.6023833  32.9644083
  58.5626993  47.7273833  33.4494083  53.5806993  44.7463833  22.5234083
  53.1186993  44.3543833  21.8964083  54.2806993  44.2333833  22.6154083
  53.6156993  44.6133833  22.4444083  58.0886993  40.3563833  27.8704083
  58.7666993  40.3743833  27.3214083  58.0436993  39.5203833  28.1154083
  58.1816993  40.2353833  27.8254083  58.6906993  50.9423833  30.6514083
  58.8286993  51.7023833  30.2444083  59.4816993  50.5773833  30.6784083
  58.8276993  51.0013833  30.5954083  55.5816993  42.8463833  22.5464083
  56.3986993  42.6593833  22.7894083  55.1046993  42.2323833  22.9424083
  55.6316993  42.7283833  22.6414083  59.7856993  48.8273833  25.1564083
  60.1336993  48.0283833  25.1864083  60.4506993  49.3313833  24.9014083
  59.9356993  48.7833833  25.1234083  59.8426993  48.2763833  21.3674083
  60.1736993  47.6323833  21.8534083  60.0826993  48.0653833  20.5564083
  59.9266993  48.1503833  21.3194083  61.8106993  42.4073833  32.7064083
  60.9626993  42.3083833  32.5284083  61.8396993  43.1523833  33.1604083
  61.6896993  42.5033833  32.7474083  56.1786993  37.9403833  21.8124083
  55.8826993  38.4413833  21.1624083  57.0456993  38.0183833  21.7554083
  56.2626993  38.0263833  21.7084083  59.1576993  37.0823833  24.0354083
  59.2306993  37.9423833  24.1644083  59.1196993  37.0073833  23.1674083
  59.1626993  37.1983833  23.9264083  52.0366993  42.5073833  25.5364083
  51.7806993  43.3383833  25.4614083  51.3726993  42.1243833  25.9534083
  51.9006993  42.5733833  25.5874083  51.9466993  52.2173833  23.4364083
  51.3546993  52.7753833  23.1234083  52.3726993  51.9483833  22.7244083
  51.9226993  52.2593833  23.2854083  57.7866993  50.0613833  20.9164083
  57.2076993  49.7863833  21.5084083  58.4106993  49.4523833  20.9414083
  57.7936993  49.9313833  21.0074083  62.0976993  52.7413833  20.4284083
  62.3116993  53.2683833  21.0904083  62.8646993  52.5673833  20.0494083
  62.2426993  52.7933833  20.4704083  55.0656993  37.3243833  26.0274083
  54.5446993  36.6963833  25.7194083  55.6566993  36.8873833  26.4984083
  55.0766993  37.1663833  26.0514083  58.3716993  39.4573833  35.3254083
  58.4886993  39.0033833  34.5894083  58.6596993  40.2553833  35.1224083
  58.4316993  39.5083833  35.1864083  53.4916993  50.8873833  21.3674083
  54.1476993  50.3123833  21.3824083  53.8806993  51.6363833  21.1464083
  53.6466993  50.9123833  21.3374083  54.1046993  39.0543833  34.3094083
  53.3266993  38.6643833  34.2374083  54.5956993  38.6423833  33.7184083
  54.0616993  38.9353833  34.2114083  54.3096993  49.3743833  24.8674083
  54.7326993  49.0183833  24.1934083  54.6336993  48.9523833  25.5594083
  54.4196993  49.2593833  24.8704083  57.5406993  52.2263833  24.1634083
  58.3846993  52.3303833  23.9684083  57.2436993  53.0443833  24.2314083
  57.6216993  52.3623833  24.1444083  60.7536993  36.6973833  33.4774083
  60.9316993  35.8883833  33.2024083  60.6106993  37.1383833  32.7384083
  60.7586993  36.6433833  33.3274083  61.3476993  41.6233833  22.2504083
  61.6346993  41.3913833  21.4604083  62.0796993  41.7023833  22.7194083
  61.4976993  41.6003833  22.2034083  62.0696993  41.9623833  17.3714083
  62.3506993  42.7503833  17.6204083  61.2936993  42.1273833  17.0084083
  61.9966993  42.1033833  17.3544083  56.5386993  53.4453833  29.9034083
  56.8306993  53.3783833  30.7234083  55.9126993  52.8403833  29.8584083
  56.4896993  53.3463833  30.0184083  51.4526993  39.6023833  31.8954083
  51.4486993  40.1893833  32.5414083  52.0466993  39.9143833  31.3384083
  51.5396993  39.7353833  31.9084083  60.9286993  50.1333833  17.1874083
  60.7476993  50.6783833  17.8444083  61.6946993  50.4233833  16.8864083
  61.0146993  50.2573833  17.2404083  52.3896993  39.1973833  20.8104083
  52.2756993  38.3333833  20.8414083  51.9146993  39.4913833  21.4804083
  52.3026993  39.1133833  20.9134083  54.5316993  51.6073833  29.0254083
  53.8336993  51.0993833  29.1514083  54.7916993  51.4023833  28.2174083
  54.4666993  51.5023833  28.9244083  61.6936993  40.4053833  19.5554083
  61.1856993  39.7433833  19.3014083  61.7456993  40.9093833  18.8454083
  61.6266993  40.3823833  19.4134083  62.2426993  53.1003833  29.9354083
  63.0106993  53.0203833  29.5294083  61.6596993  52.9793833  29.2974083
  62.2696993  53.0703833  29.7814083  61.6936993  37.3463833  19.4464083
  61.2386993  36.9443833  18.8204083  62.4666993  37.5013833  19.0714083
  61.7406993  37.3103833  19.2984083  60.2916993  39.7133833  23.9684083
  60.3656993  40.2813833  23.3104083  60.4126993  40.2053833  24.6784083
  60.3196993  39.8703833  23.9764083  55.8926993  50.4583833  31.5924083
  56.7336993  50.5213833  31.3704083  55.8556993  50.8553833  32.3684083
  56.0116993  50.5263833  31.6744083  54.8996993  35.5363833  22.3164083
  55.4356993  36.2243833  22.3064083  54.9026993  35.2623833  21.4884083
  54.9786993  35.5973833  22.1924083  57.8556993  45.9693833  26.3414083
  58.0276993  45.7593833  27.1704083  57.2006993  45.4353833  26.1254083
  57.7846993  45.8593833  26.4324083  58.6056993  45.9073833  28.9314083
  58.6586993  46.7543833  29.1334083  58.3206993  45.5373833  29.6684083
  58.5716993  45.9773833  29.0694083  51.4266993  50.2783833  35.1424083
  52.1826993  50.6273833  35.4004083  51.6036993  49.4253833  35.0854083
  51.5646993  50.2033833  35.1724083  55.3476993  39.3463833  23.9704083
  55.6196993  38.9163833  23.2624083  55.1716993  38.7103833  24.5414083
  55.3616993  39.1893833  23.9504083  55.1716993  46.7733833  23.5194083
  56.0226993  46.6933833  23.3464083  54.8146993  46.0913833  23.1074083
  55.2446993  46.6603833  23.4324083  53.9386993  53.4983833  24.7564083
  53.2656993  53.0003833  24.5114083  54.3416993  53.6833833  24.0054083
  53.8986993  53.4523833  24.6094083  53.4886993  40.4483833  27.0524083
  54.3316993  40.6683833  27.0094083  53.0996993  41.0213833  26.5214083
  53.5556993  40.5653833  26.9674083  57.5396993  46.7803833  21.7544083
  58.2526993  47.2753833  21.8444083  57.7616993  46.2133833  21.1284083
  57.6776993  46.7693833  21.6754083  51.6956993  48.4233833  25.0744083
  51.0286993  48.9113833  25.3504083  52.3756993  48.9683833  25.1034083
  51.6976993  48.5753833  25.1194083  59.3426993  42.1333833  35.1704083
  58.8586993  42.7103833  35.6124083  59.3146993  42.4283833  34.3494083
  59.2666993  42.2623833  35.1144083  51.7616993  45.1073833  20.1774083
  51.5766993  44.2683833  20.3294083  52.4206993  45.0713833  19.6074083
  51.8316993  44.9783833  20.1154083  62.0626993  50.4833833  24.0814083
  61.5396993  51.1173833  23.7884083  62.3726993  50.1193833  23.3524083
  62.0306993  50.5233833  23.9304083  51.9336993  49.2713833  19.7524083
  52.4856993  49.8403833  20.1164083  51.7016993  48.7563833  20.4174083
  51.9806993  49.2793833  19.9044083  56.1376993  48.2713833  26.8414083
  56.6046993  48.5603833  27.5194083  56.7096993  47.7933833  26.3874083
  56.2916993  48.2433833  26.8744083  51.7636993  47.7203833  17.3804083
  52.5196993  47.2883833  17.4384083  51.7786993  48.2523833  18.0714083
  51.8776993  47.7353833  17.4914083  52.7036993  45.9413833  25.3854083
  53.1346993  45.8123833  24.6384083  52.4986993  46.7893833  25.3594083
  52.7366993  46.0473833  25.2714083  59.0496993  39.5053833  19.0354083
  59.0476993  39.3883833  18.1704083  58.8686993  40.3533833  19.1274083
  59.0226993  39.6133833  18.9214083  56.7876993  49.4573833  23.6674083
  56.9136993  50.3003833  23.8544083  57.4556993  49.0583833  24.0634083
  56.9056993  49.5233833  23.7534083  54.9176993  42.9403833  33.5294083
  54.3816993  42.4343833  33.9974083  54.9376993  42.5503833  32.7494083
  54.8406993  42.8073833  33.4834083  55.4026993  42.3373833  18.6694083
  55.2746993  41.8893833  19.4074083  54.8206993  41.9953833  18.1174083
  55.2976993  42.2203833  18.6974083  55.5696993  44.1673833  25.2684083
  54.7886993  44.1083833  24.8854083  55.6416993  43.4153833  25.7054083
  55.4646993  44.0483833  25.2764083  55.9996993  43.9043833  28.7364083
  56.0246993  43.2293833  28.1854083  55.3536993  44.4003833  28.4244083
  55.9086993  43.8773833  28.6094083  60.0996993  52.6813833  28.1284083
  59.8226993  52.0403833  27.6054083  59.8916993  53.4073833  27.6904083
  60.0286993  52.6943833  27.9864083  62.5396993  37.5233833  30.5614083
  62.6886993  36.6983833  30.3184083  62.9186993  37.5783833  31.3454083
  62.6176993  37.4093833  30.6414083  53.7986993  45.2593833  34.2954083
  53.7616993  45.7603833  33.5814083  54.1296993  44.5073833  34.0004083
  53.8416993  45.2213833  34.1464083  59.6976993  50.3093833  33.7304083
  60.0516993  50.1313833  34.5074083  59.2616993  49.5803833  33.5314083
  59.6856993  50.1753833  33.8164083  60.6696993  41.0563833  26.3684083
  61.1496993  41.7553833  26.5764083  61.0426993  40.4093833  26.8194083
  60.7956993  41.0643833  26.4654083  62.8586993  44.2253833  18.6424083
  62.8506993  44.9473833  18.1524083  62.2196993  44.3603833  19.2194083
  62.7636993  44.3523833  18.6554083  57.7806993  52.8243833  20.3154083
  57.6336993  52.0483833  20.6864083  58.4696993  52.6773833  19.8004083
  57.8606993  52.6873833  20.2944083  57.4516993  36.5673833  18.3034083
  57.5486993  36.4603833  19.1644083  56.7436993  37.0733833  18.2384083
  57.3616993  36.6263833  18.4214083  60.0726993  52.3403833  18.7174083
  60.6946993  52.5033833  19.3074083  60.1086993  53.0313833  18.1854083
  60.1696993  52.4663833  18.7264083  54.5736993  44.8743833  19.5464083
  54.8976993  44.0953833  19.3244083  55.2196993  45.2423833  20.0014083
  54.7166993  44.8133833  19.5804083  51.5706993  36.5353833  20.5144083
  51.6996993  35.8273833  20.0224083  51.2036993  36.2173833  21.2394083
  51.5356993  36.3833833  20.5494083  61.2636993  44.2163833  20.9714083
  61.3226993  44.8663833  21.5504083  61.0746993  43.5203833  21.4624083
  61.2446993  44.2093833  21.1294083  55.7596993  38.7333833  17.4834083
  55.2486993  38.7863833  16.7774083  56.5436993  38.9733833  17.1874083
  55.7996993  38.7763833  17.3354083  60.4866993  46.2633833  25.4024083
  59.6396993  46.0693833  25.4834083  60.8106993  46.0983833  26.1954083
  60.4086993  46.2103833  25.5314083  57.2386993  52.9933833  16.2884083
  57.6776993  52.2963833  16.5764083  57.4456993  53.6173833  16.8614083
  57.3346993  52.9823833  16.4154083  54.3346993  45.9563833  27.7184083
  55.0566993  46.4443833  27.6814083  54.0646993  45.9263833  26.8894083
  54.4016993  46.0243833  27.5904083  57.5646993  41.1273833  24.4534083
  58.4106993  40.9373833  24.5514083  57.1946993  40.3503833  24.3154083
  57.6346993  40.9843833  24.4474083  52.3856993  42.4653833  21.1084083
  52.8746993  42.1733833  21.7694083  52.5146993  41.8723833  20.4814083
  52.4766993  42.3343833  21.1134083  56.9106993  43.8993833  16.5944083
  56.3006993  43.4943833  17.0684083  56.5246993  44.0173833  15.8214083
  56.7636993  43.8563833  16.5504083  53.7296993  47.0083833  31.9964083
  53.3086993  46.4903833  31.4354083  53.3776993  47.7943833  31.8534083
  53.6156993  47.0483833  31.8924083  58.3656993  42.3603833  19.3044083
  58.6376993  43.1863833  19.3714083  57.5026993  42.4353833  19.2084083
  58.2786993  42.4933833  19.2994083  51.8456993  38.3303833  25.8404083
  51.8896993  38.6743833  25.0394083  52.6006993  38.5673833  26.2074083
  51.9636993  38.4163833  25.7764083  58.4686993  48.8193833  28.6144083
  58.1706993  49.4113833  29.1814083  58.5236993  49.2613833  27.8654083
  58.4326993  48.9723833  28.5874083  56.4476993  47.7693833  32.0124083
  55.6416993  47.4793833  32.1794083  56.3586993  48.6373833  32.0184083
  56.3156993  47.8543833  32.0374083  60.9846993  45.2423833  28.1054083
  61.4606993  45.6163833  28.7334083  60.1616993  45.3763833  28.3644083
  60.9336993  45.3173833  28.2364083  57.6946993  40.8453833  30.8464083
  57.8556993  40.1013833  31.2734083  57.6496993  40.5963833  30.0114083
  57.7116993  40.6983833  30.7864083  60.2486993  52.6353833  23.3334083
  60.7946993  53.3143833  23.3874083  59.8986993  52.7173833  22.5384083
  60.2776993  52.7483833  23.2234083  59.4466993  36.6533833  30.7264083
  60.1516993  36.9733833  30.3244083  59.6876993  35.8463833  30.9534083
  59.5856993  36.5813833  30.7004083  58.4316993  50.8633833  26.7224083
  57.8076993  51.4453833  26.5404083  58.6796993  50.5773833  25.9364083
  58.3756993  50.9073833  26.5794083  60.0256993  45.6393833  16.6374083
  59.2206993  45.4623833  16.3524083  59.9926993  46.4903833  16.8294083
  59.9016993  45.7383833  16.6244083  55.9556993  41.7063833  26.7874083
  56.3956993  41.6033833  26.0414083  56.5006993  41.3933833  27.3924083
  56.1006993  41.6453833  26.7664083  61.0846993  52.5123833  32.6024083
  61.5626993  51.9123833  32.1864083  60.7336993  52.0693833  33.2674083
  61.1036993  52.3583833  32.6394083  59.5026993  36.6913833  26.8344083
  58.6766993  36.5423833  27.0714083  59.4626993  36.7263833  25.9634083
  59.3746993  36.6743833  26.7404083  61.1436993  47.7313833  31.6224083
  60.3486993  47.6673833  31.9734083  61.2146993  48.5783833  31.4274083
  61.0366993  47.8463833  31.6454083  52.0676993  37.0893833  32.8694083
  51.9276993  37.8843833  32.5384083  51.2816993  36.8463833  33.1584083
  51.9306993  37.1713833  32.8634083  56.9736993  53.9383833  26.9394083
  56.9846993  53.9973833  27.8094083  56.5486993  53.1913833  26.7894083
  56.9126993  53.8363833  27.0454083  55.1316993  39.8333833  20.0944083
  55.2576993  39.5043833  19.2964083  54.3196993  39.5843833  20.2934083
  55.0306993  39.7483833  20.0064083  61.4106993  46.2603833  22.7034083
  61.1126993  45.9453833  23.4604083  62.1056993  46.7333833  22.9384083
  61.4696993  46.2833833  22.8504083  61.6326993  50.3783833  30.7304083
  62.3196993  50.2643833  31.2554083  61.7666993  51.1693833  30.3864083
  61.7536993  50.4783833  30.7574083  53.7376993  53.4363833  32.3814083
  53.0836993  52.8673833  32.4794083  53.3626993  54.2093833  32.5324083
  53.5856993  53.4663833  32.4184083  62.2556993  44.8423833  34.3044083
  62.5786993  45.5283833  33.8724083  61.5516993  45.1653833  34.7064083
  62.1986993  44.9913833  34.2994083  62.0406993  48.3063833  28.1634083
  61.3466993  48.7083833  28.5064083  62.7176993  48.7393833  28.5024083
  62.0376993  48.4293833  28.2644083  55.1086993  41.8443833  30.5104083
  55.4836993  42.4633833  30.0234083  55.7826993  41.3703833  30.7954083
  55.2636993  41.8663833  30.4804083  52.8836993  40.2923833  29.7854083
  52.9606993  40.1233833  28.9324083  53.6296993  40.6983833  29.9824083
  53.0046993  40.3273833  29.6884083  55.4376993  37.7023833  32.1964083
  55.3566993  36.8583833  32.4024083  55.1236993  37.7463833  31.3834083
  55.3796993  37.5843833  32.1064083  62.3626993  49.8973833  21.3324083
  62.1576993  50.7303833  21.1734083  61.5876993  49.5153833  21.4544083
  62.2176993  49.9643833  21.3274083  52.2806993  45.5183833  30.0094083
  52.6006993  45.7373833  29.2284083  52.1806993  44.6533833  29.9544083
  52.3126993  45.4233833  29.8864083  53.7366993  41.4543833  16.6274083
  53.0646993  41.4683833  17.1834083  53.8316993  40.6063833  16.4434083
  53.6516993  41.3313833  16.6824083  62.4176993  38.0683833  24.2174083
  61.7176993  38.5863833  24.1614083  62.4556993  37.6883833  23.4334083
  62.3196993  38.0893833  24.0934083  57.7246993  50.1593833  17.7414083
  58.1656993  50.2393833  18.4894083  56.9196993  49.9433833  17.9994083
  57.6706993  50.1393833  17.8904083  57.0436993  44.8103833  31.3944083
  56.6476993  45.5843833  31.4694083  56.6376993  44.4373833  30.7184083
  56.9256993  44.8693833  31.3054083  55.0536993  49.2293833  18.3424083
  54.8096993  48.9223833  19.1224083  55.0206993  48.5263833  17.8264083
  55.0126993  49.0803833  18.3814083  57.8726993  47.4743833  17.0854083
  57.0546993  47.2063833  17.2254083  57.8446993  48.3263833  17.2704083
  57.7476993  47.5613833  17.1334083  57.4726993  37.7873833  28.8444083
  56.6086993  37.8713833  28.9244083  57.6926993  37.2733833  29.5134083
  57.3776993  37.7243833  28.9554083  61.5756993  38.5353833  27.2184083
  60.8386993  38.0813833  27.3314083  62.1466993  38.1333833  27.7414083
  61.5506993  38.4083833  27.3124083  59.0786993  42.8643833  32.4224083
  58.7566993  42.2883833  31.8524083  58.7196993  43.6193833  32.1764083
  58.9786993  42.8903833  32.3024083  59.8746993  36.1163833  17.0494083
  59.9526993  36.3633833  16.2164083  59.1316993  36.4933833  17.3074083
  59.7766993  36.2083833  16.9644083  57.5136993  53.2203833  32.6704083
  57.5546993  53.3463833  33.5334083  58.1646993  52.6603833  32.5144083
  57.6156993  53.1563833  32.7754083  54.6926993  37.8703833  29.4924083
  54.3496993  37.1033833  29.2584083  53.9976993  38.3943833  29.5564083
  54.5396993  37.8343833  29.4674083  55.1066993  51.6033833  34.0304083
  55.7016993  52.0343833  34.5024083  54.7426993  52.2273833  33.5414083
  55.1406993  51.7593833  34.0274083  53.3456993  41.1843833  23.4484083
  52.9776993  41.4863833  24.1794083  53.8796993  40.5553833  23.7324083
  53.3696993  41.1363833  23.5984083  53.0336993  49.5923833  30.9594083
  52.4596993  50.0083833  31.4684083  53.7666993  50.0573833  31.0544083
  53.0576993  49.7223833  31.0484083  54.8196993  52.8593833  19.7344083
  54.6746993  53.0153833  18.8884083  55.6856993  52.9383833  19.8124083
  54.9266993  52.8943833  19.6214083  58.9866993  45.2563833  19.4624083
  59.0866993  45.3953833  18.6074083  59.8046993  45.1963833  19.7584083
  59.1216993  45.2673833  19.3794083  58.1256993  38.2313833  32.5784083
  58.3596993  37.6553833  31.9654083  57.2836993  38.0503833  32.7194083
  58.0356993  38.1193833  32.5084083  55.5066993  51.6743833  26.2114083
  55.4276993  50.8643833  25.8954083  55.0626993  52.1613833  25.6394083
  55.4296993  51.6263833  26.0804083  61.1076993  47.7933833  18.6944083
  61.8246993  47.4463833  18.3384083  61.0736993  48.5933833  18.3464083
  61.2086993  47.8603833  18.5904083  53.0786993  53.9183833  29.7924083
  53.5716993  53.8623833  30.5104083  53.2666993  53.1853833  29.3574083
  53.1796993  53.8013833  29.8344083  62.3256993  43.3503833   7.6041673
  61.8016993  43.9463833   7.9671673  62.7226993  42.9823833   8.2881673
  62.3066993  43.3843833   7.7591673  52.1946993  47.4903833   3.0601673
  51.7536993  47.6083833   3.8031673  51.9116993  46.7153833   2.7751673
  52.0876993  47.3933833   3.1281673  54.7036993  48.1863833   2.1391673
  55.3116993  48.0163833   2.7421673  53.9526993  48.0463833   2.5601673
  54.6826993  48.1403833   2.2901673  58.9856993  37.5213833   2.0881673
  58.9156993  38.1983833   1.5421673  59.7266993  37.1333833   1.8391673
  59.0846993  37.5643833   1.9701673  52.1346993  50.2253833   9.3151673
  52.2636993  49.9453833  10.1311673  51.5246993  49.6843833   9.0061673
  52.0636993  50.1043833   9.3901673  58.7086993  47.7503833  14.3821673
  58.4726993  47.7473833  15.2221673  57.9606993  47.6023833  13.9581673
  58.5626993  47.7273833  14.4431673  53.5806993  44.7463833   3.5171673
  53.1186993  44.3543833   2.8901673  54.2806993  44.2333833   3.6091673
  53.6156993  44.6133833   3.4381673  58.0886993  40.3563833   8.8641673
  58.7666993  40.3743833   8.3151673  58.0436993  39.5203833   9.1091673
  58.1816993  40.2353833   8.8191673  58.6906993  50.9423833  11.6451673
  58.8286993  51.7023833  11.2381673  59.4816993  50.5773833  11.6721673
  58.8276993  51.0013833  11.5891673  55.5816993  42.8463833   3.5401673
  56.3986993  42.6593833   3.7831673  55.1046993  42.2323833   3.9361673
  55.6316993  42.7283833   3.6351673  59.7856993  48.8273833   6.1501673
  60.1336993  48.0283833   6.1801673  60.4506993  49.3313833   5.8951673
  59.9356993  48.7833833   6.1171673  59.8426993  48.2763833   2.3611673
  60.1736993  47.6323833   2.8471673  60.0826993  48.0653833   1.5501673
  59.9266993  48.1503833   2.3131673  61.8106993  42.4073833  13.7001673
  60.9626993  42.3083833  13.5221673  61.8396993  43.1523833  14.1541673
  61.6896993  42.5033833  13.7411673  56.1786993  37.9403833   2.8061673
  55.8826993  38.4413833   2.1561673  57.0456993  38.0183833   2.7491673
  56.2626993  38.0263833   2.7021673  59.1576993  37.0823833   5.0291673
  59.2306993  37.9423833   5.1581673  59.1196993  37.0073833   4.1611673
  59.1626993  37.1983833   4.9201673  52.0366993  42.5073833   6.5301673
  51.7806993  43.3383833   6.4551673  51.3726993  42.1243833   6.9471673
  51.9006993  42.5733833   6.5811673  51.9466993  52.2173833   4.4301673
  51.3546993  52.7753833   4.1171673  52.3726993  51.9483833   3.7181673
  51.9226993  52.2593833   4.2791673  57.7866993  50.0613833   1.9101673
  57.2076993  49.7863833   2.5021673  58.4106993  49.4523833   1.9351673
  57.7936993  49.9313833   2.0011673  55.0656993  37.3243833   7.0211673
  54.5446993  36.6963833   6.7131673  55.6566993  36.8873833   7.4921673
  55.0766993  37.1663833   7.0451673  58.3716993  39.4573833  16.3191673
  58.4886993  39.0033833  15.5831673  58.6596993  40.2553833  16.1161673
  58.4316993  39.5083833  16.1801673  53.4916993  50.8873833   2.3611673
  54.1476993  50.3123833   2.3761673  53.8806993  51.6363833   2.1401673
  53.6466993  50.9123833   2.3311673  54.1046993  39.0543833  15.3031673
  53.3266993  38.6643833  15.2311673  54.5956993  38.6423833  14.7121673
  54.0616993  38.9353833  15.2051673  54.3096993  49.3743833   5.8611673
  54.7326993  49.0183833   5.1871673  54.6336993  48.9523833   6.5531673
  54.4196993  49.2593833   5.8641673  57.5406993  52.2263833   5.1571673
  58.3846993  52.3303833   4.9621673  57.2436993  53.0443833   5.2251673
  57.6216993  52.3623833   5.1381673  60.7536993  36.6973833  14.4711673
  60.9316993  35.8883833  14.1961673  60.6106993  37.1383833  13.7321673
  60.7586993  36.6433833  14.3211673  61.3476993  41.6233833   3.2441673
  61.6346993  41.3913833   2.4541673  62.0796993  41.7023833   3.7131673
  61.4976993  41.6003833   3.1971673  56.5386993  53.4453833  10.8971673
  56.8306993  53.3783833  11.7171673  55.9126993  52.8403833  10.8521673
  56.4896993  53.3463833  11.0121673  51.4526993  39.6023833  12.8891673
  51.4486993  40.1893833  13.5351673  52.0466993  39.9143833  12.3321673
  51.5396993  39.7353833  12.9021673  52.3896993  39.1973833   1.8041673
  52.2756993  38.3333833   1.8351673  51.9146993  39.4913833   2.4741673
  52.3026993  39.1133833   1.9071673  54.5316993  51.6073833  10.0191673
  53.8336993  51.0993833  10.1451673  54.7916993  51.4023833   9.2111673
  54.4666993  51.5023833   9.9181673  62.2426993  53.1003833  10.9291673
  63.0106993  53.0203833  10.5231673  61.6596993  52.9793833  10.2911673
  62.2696993  53.0703833  10.7751673  60.2916993  39.7133833   4.9621673
  60.3656993  40.2813833   4.3041673  60.4126993  40.2053833   5.6721673
  60.3196993  39.8703833   4.9701673  55.8926993  50.4583833  12.5861673
  56.7336993  50.5213833  12.3641673  55.8556993  50.8553833  13.3621673
  56.0116993  50.5263833  12.6681673  54.8996993  35.5363833   3.3101673
  55.4356993  36.2243833   3.3001673  54.9026993  35.2623833   2.4821673
  54.9786993  35.5973833   3.1861673  57.8556993  45.9693833   7.3351673
  58.0276993  45.7593833   8.1641673  57.2006993  45.4353833   7.1191673
  57.7846993  45.8593833   7.4261673  58.6056993  45.9073833   9.9251673
  58.6586993  46.7543833  10.1271673  58.3206993  45.5373833  10.6621673
  58.5716993  45.9773833  10.0631673  51.4266993  50.2783833  16.1361673
  52.1826993  50.6273833  16.3941673  51.6036993  49.4253833  16.0791673
  51.5646993  50.2033833  16.1661673  55.3476993  39.3463833   4.9641673
  55.6196993  38.9163833   4.2561673  55.1716993  38.7103833   5.5351673
  55.3616993  39.1893833   4.9441673  55.1716993  46.7733833   4.5131673
  56.0226993  46.6933833   4.3401673  54.8146993  46.0913833   4.1011673
  55.2446993  46.6603833   4.4261673  53.9386993  53.4983833   5.7501673
  53.2656993  53.0003833   5.5051673  54.3416993  53.6833833   4.9991673
  53.8986993  53.4523833   5.6031673  53.4886993  40.4483833   8.0461673
  54.3316993  40.6683833   8.0031673  53.0996993  41.0213833   7.5151673
  53.5556993  40.5653833   7.9611673  57.5396993  46.7803833   2.7481673
  58.2526993  47.2753833   2.8381673  57.7616993  46.2133833   2.1221673
  57.6776993  46.7693833   2.6691673  51.6956993  48.4233833   6.0681673
  51.0286993  48.9113833   6.3441673  52.3756993  48.9683833   6.0971673
  51.6976993  48.5753833   6.1131673  59.3426993  42.1333833  16.1641673
  58.8586993  42.7103833  16.6061673  59.3146993  42.4283833  15.3431673
  59.2666993  42.2623833  16.1081673  62.0626993  50.4833833   5.0751673
  61.5396993  51.1173833   4.7821673  62.3726993  50.1193833   4.3461673
  62.0306993  50.5233833   4.9241673  56.1376993  48.2713833   7.8351673
  56.6046993  48.5603833   8.5131673  56.7096993  47.7933833   7.3811673
  56.2916993  48.2433833   7.8681673  52.7036993  45.9413833   6.3791673
  53.1346993  45.8123833   5.6321673  52.4986993  46.7893833   6.3531673
  52.7366993  46.0473833   6.2651673  56.7876993  49.4573833   4.6611673
  56.9136993  50.3003833   4.8481673  57.4556993  49.0583833   5.0571673
  56.9056993  49.5233833   4.7471673  54.9176993  42.9403833  14.5231673
  54.3816993  42.4343833  14.9911673  54.9376993  42.5503833  13.7431673
  54.8406993  42.8073833  14.4771673  55.5696993  44.1673833   6.2621673
  54.7886993  44.1083833   5.8791673  55.6416993  43.4153833   6.6991673
  55.4646993  44.0483833   6.2701673  55.9996993  43.9043833   9.7301673
  56.0246993  43.2293833   9.1791673  55.3536993  44.4003833   9.4181673
  55.9086993  43.8773833   9.6031673  60.0996993  52.6813833   9.1221673
  59.8226993  52.0403833   8.5991673  59.8916993  53.4073833   8.6841673
  60.0286993  52.6943833   8.9801673  62.5396993  37.5233833  11.5551673
  62.6886993  36.6983833  11.3121673  62.9186993  37.5783833  12.3391673
  62.6176993  37.4093833  11.6351673  53.7986993  45.2593833  15.2891673
  53.7616993  45.7603833  14.5751673  54.1296993  44.5073833  14.9941673
  53.8416993  45.2213833  15.1401673  59.6976993  50.3093833  14.7241673
  60.0516993  50.1313833  15.5011673  59.2616993  49.5803833  14.5251673
  59.6856993  50.1753833  14.8101673  60.6696993  41.0563833   7.3621673
  61.1496993  41.7553833   7.5701673  61.0426993  40.4093833   7.8131673
  60.7956993  41.0643833   7.4591673  61.2636993  44.2163833   1.9651673
  61.3226993  44.8663833   2.5441673  61.0746993  43.5203833   2.4561673
  61.2446993  44.2093833   2.1231673  60.4866993  46.2633833   6.3961673
  59.6396993  46.0693833   6.4771673  60.8106993  46.0983833   7.1891673
  60.4086993  46.2103833   6.5251673  54.3346993  45.9563833   8.7121673
  55.0566993  46.4443833   8.6751673  54.0646993  45.9263833   7.8831673
  54.4016993  46.0243833   8.5841673  57.5646993  41.1273833   5.4471673
  58.4106993  40.9373833   5.5451673  57.1946993  40.3503833   5.3091673
  57.6346993  40.9843833   5.4411673  53.7296993  47.0083833  12.9901673
  53.3086993  46.4903833  12.4291673  53.3776993  47.7943833  12.8471673
  53.6156993  47.0483833  12.8861673  51.8456993  38.3303833   6.8341673
  51.8896993  38.6743833   6.0331673  52.6006993  38.5673833   7.2011673
  51.9636993  38.4163833   6.7701673  58.4686993  48.8193833   9.6081673
  58.1706993  49.4113833  10.1751673  58.5236993  49.2613833   8.8591673
  58.4326993  48.9723833   9.5811673  56.4476993  47.7693833  13.0061673
  55.6416993  47.4793833  13.1731673  56.3586993  48.6373833  13.0121673
  56.3156993  47.8543833  13.0311673  60.9846993  45.2423833   9.0991673
  61.4606993  45.6163833   9.7271673  60.1616993  45.3763833   9.3581673
  60.9336993  45.3173833   9.2301673  57.6946993  40.8453833  11.8401673
  57.8556993  40.1013833  12.2671673  57.6496993  40.5963833  11.0051673
  57.7116993  40.6983833  11.7801673  60.2486993  52.6353833   4.3271673
  60.7946993  53.3143833   4.3811673  59.8986993  52.7173833   3.5321673
  60.2776993  52.7483833   4.2171673  59.4466993  36.6533833  11.7201673
  60.1516993  36.9733833  11.3181673  59.6876993  35.8463833  11.9471673
  59.5856993  36.5813833  11.6941673  58.4316993  50.8633833   7.7161673
  57.8076993  51.4453833   7.5341673  58.6796993  50.5773833   6.9301673
  58.3756993  50.9073833   7.5731673  55.9556993  41.7063833   7.7811673
  56.3956993  41.6033833   7.0351673  56.5006993  41.3933833   8.3861673
  56.1006993  41.6453833   7.7601673  61.0846993  52.5123833  13.5961673
  61.5626993  51.9123833  13.1801673  60.7336993  52.0693833  14.2611673
  61.1036993  52.3583833  13.6331673  59.5026993  36.6913833   7.8281673
  58.6766993  36.5423833   8.0651673  59.4626993  36.7263833   6.9571673
  59.3746993  36.6743833   7.7341673  61.1436993  47.7313833  12.6161673
  60.3486993  47.6673833  12.9671673  61.2146993  48.5783833  12.4211673
  61.0366993  47.8463833  12.6391673  52.0676993  37.0893833  13.8631673
  51.9276993  37.8843833  13.5321673  51.2816993  36.8463833  14.1521673
  51.9306993  37.1713833  13.8571673  56.9736993  53.9383833   7.9331673
  56.9846993  53.9973833   8.8031673  56.5486993  53.1913833   7.7831673
  56.9126993  53.8363833   8.0391673  61.4106993  46.2603833   3.6971673
  61.1126993  45.9453833   4.4541673  62.1056993  46.7333833   3.9321673
  61.4696993  46.2833833   3.8441673  61.6326993  50.3783833  11.7241673
  62.3196993  50.2643833  12.2491673  61.7666993  51.1693833  11.3801673
  61.7536993  50.4783833  11.7511673  53.7376993  53.4363833  13.3751673
  53.0836993  52.8673833  13.4731673  53.3626993  54.2093833  13.5261673
  53.5856993  53.4663833  13.4121673  62.2556993  44.8423833  15.2981673
  62.5786993  45.5283833  14.8661673  61.5516993  45.1653833  15.7001673
  62.1986993  44.9913833  15.2931673  62.0406993  48.3063833   9.1571673
  61.3466993  48.7083833   9.5001673  62.7176993  48.7393833   9.4961673
  62.0376993  48.4293833   9.2581673  55.1086993  41.8443833  11.5041673
  55.4836993  42.4633833  11.0171673  55.7826993  41.3703833  11.7891673
  55.2636993  41.8663833  11.4741673  52.8836993  40.2923833  10.7791673
  52.9606993  40.1233833   9.9261673  53.6296993  40.6983833  10.9761673
  53.0046993  40.3273833  10.6821673  55.4376993  37.7023833  13.1901673
  55.3566993  36.8583833  13.3961673  55.1236993  37.7463833  12.3771673
  55.3796993  37.5843833  13.1001673  62.3626993  49.8973833   2.3261673
  62.1576993  50.7303833   2.1671673  61.5876993  49.5153833   2.4481673
  62.2176993  49.9643833   2.3211673  52.2806993  45.5183833  11.0031673
  52.6006993  45.7373833  10.2221673  52.1806993  44.6533833  10.9481673
  52.3126993  45.4233833  10.8801673  62.4176993  38.0683833   5.2111673
  61.7176993  38.5863833   5.1551673  62.4556993  37.6883833   4.4271673
  62.3196993  38.0893833   5.0871673  57.0436993  44.8103833  12.3881673
  56.6476993  45.5843833  12.4631673  56.6376993  44.4373833  11.7121673
  56.9256993  44.8693833  12.2991673  57.4726993  37.7873833   9.8381673
  56.6086993  37.8713833   9.9181673  57.6926993  37.2733833  10.5071673
  57.3776993  37.7243833   9.9491673  61.5756993  38.5353833   8.2121673
  60.8386993  38.0813833   8.3251673  62.1466993  38.1333833   8.7351673
  61.5506993  38.4083833   8.3061673  59.0786993  42.8643833  13.4161673
  58.7566993  42.2883833  12.8461673  58.7196993  43.6193833  13.1701673
  58.9786993  42.8903833  13.2961673  57.5136993  53.2203833  13.6641673
  57.5546993  53.3463833  14.5271673  58.1646993  52.6603833  13.5081673
  57.6156993  53.1563833  13.7691673  54.6926993  37.8703833  10.4861673
  54.3496993  37.1033833  10.2521673  53.9976993  38.3943833  10.5501673
  54.5396993  37.8343833  10.4611673  55.1066993  51.6033833  15.0241673
  55.7016993  52.0343833  15.4961673  54.7426993  52.2273833  14.5351673
  55.1406993  51.7593833  15.0211673  53.3456993  41.1843833   4.4421673
  52.9776993  41.4863833   5.1731673  53.8796993  40.5553833   4.7261673
  53.3696993  41.1363833   4.5921673  53.0336993  49.5923833  11.9531673
  52.4596993  50.0083833  12.4621673  53.7666993  50.0573833  12.0481673
  53.0576993  49.7223833  12.0421673  58.1256993  38.2313833  13.5721673
  58.3596993  37.6553833  12.9591673  57.2836993  38.0503833  13.7131673
  58.0356993  38.1193833  13.5021673  55.5066993  51.6743833   7.2051673
  55.4276993  50.8643833   6.8891673  55.0626993  52.1613833   6.6331673
  55.4296993  51.6263833   7.0741673  53.0786993  53.9183833  10.7861673
  53.5716993  53.8623833  11.5041673  53.2666993  53.1853833  10.3511673
  53.1796993  53.8013833  10.8281673  62.3256993  24.8722753  83.6291313
  61.8016993  25.4682753  83.9921313  62.7226993  24.5042753  84.3131313
  62.3066993  24.9062753  83.7841313  52.1946993  29.0122753  79.0851313
  51.7536993  29.1302753  79.8281313  51.9116993  28.2372753  78.8001313
  52.0876993  28.9152753  79.1531313  51.9376993  22.8042753  75.5921313
  51.1596993  22.9662753  75.2321313  51.9766993  21.9332753  75.6141313
  51.8286993  22.6992753  75.5421313  55.0766993  28.0672753  74.2641313
  54.6846993  27.6962753  73.5781313  54.9966993  27.4692753  74.8931313
  55.0066993  27.9242753  74.2551313  54.7036993  29.7082753  78.1641313
  55.3116993  29.5382753  78.7671313  53.9526993  29.5682753  78.5851313
  54.6826993  29.6622753  78.3151313  58.9856993  19.0432753  78.1131313
  58.9156993  19.7202753  77.5671313  59.7266993  18.6552753  77.8641313
  59.0846993  19.0862753  77.9951313  53.5946993  32.7992753  74.2411313
  54.0616993  32.8832753  73.5091313  54.0496993  32.2212753  74.7101313
  53.7306993  32.7262753  74.2021313  52.1346993  31.7472753  85.3401313
  52.2636993  31.4672753  86.1561313  51.5246993  31.2062753  85.0311313
  52.0636993  31.6262753  85.4151313  53.5806993  26.2682753  79.5421313
  53.1186993  25.8762753  78.9151313  54.2806993  25.7552753  79.6341313
  53.6156993  26.1352753  79.4631313  58.0886993  21.8782753  84.8891313
  58.7666993  21.8962753  84.3401313  58.0436993  21.0422753  85.1341313
  58.1816993  21.7572753  84.8441313  58.6906993  32.4642753  87.6701313
  58.8286993  33.2242753  87.2631313  59.4816993  32.0992753  87.6971313
  58.8276993  32.5232753  87.6141313  55.5816993  24.3682753  79.5651313
  56.3986993  24.1812753  79.8081313  55.1046993  23.7542753  79.9611313
  55.6316993  24.2502753  79.6601313  59.7856993  30.3492753  82.1751313
  60.1336993  29.5502753  82.2051313  60.4506993  30.8532753  81.9201313
  59.9356993  30.3052753  82.1421313  59.8426993  29.7982753  78.3861313
  60.1736993  29.1542753  78.8721313  60.0826993  29.5872753  77.5751313
  59.9266993  29.6722753  78.3381313  56.1786993  19.4622753  78.8311313
  55.8826993  19.9632753  78.1811313  57.0456993  19.5402753  78.7741313
  56.2626993  19.5482753  78.7271313  59.1576993  18.6042753  81.0541313
  59.2306993  19.4642753  81.1831313  59.1196993  18.5292753  80.1861313
  59.1626993  18.7202753  80.9451313  52.0366993  24.0292753  82.5551313
  51.7806993  24.8602753  82.4801313  51.3726993  23.6462753  82.9721313
  51.9006993  24.0952753  82.6061313  51.9466993  33.7392753  80.4551313
  51.3546993  34.2972753  80.1421313  52.3726993  33.4702753  79.7431313
  51.9226993  33.7812753  80.3041313  57.7866993  31.5832753  77.9351313
  57.2076993  31.3082753  78.5271313  58.4106993  30.9742753  77.9601313
  57.7936993  31.4532753  78.0261313  62.0976993  34.2632753  77.4471313
  62.3116993  34.7902753  78.1091313  62.8646993  34.0892753  77.0681313
  62.2426993  34.3152753  77.4891313  55.0656993  18.8462753  83.0461313
  54.5446993  18.2182753  82.7381313  55.6566993  18.4092753  83.5171313
  55.0766993  18.6882753  83.0701313  53.4916993  32.4092753  78.3861313
  54.1476993  31.8342753  78.4011313  53.8806993  33.1582753  78.1651313
  53.6466993  32.4342753  78.3561313  54.3096993  30.8962753  81.8861313
  54.7326993  30.5402753  81.2121313  54.6336993  30.4742753  82.5781313
  54.4196993  30.7812753  81.8891313  57.5406993  33.7482753  81.1821313
  58.3846993  33.8522753  80.9871313  57.2436993  34.5662753  81.2501313
  57.6216993  33.8842753  81.1631313  61.3476993  23.1452753  79.2691313
  61.6346993  22.9132753  78.4791313  62.0796993  23.2242753  79.7381313
  61.4976993  23.1222753  79.2221313  62.0696993  23.4842753  74.3901313
  62.3506993  24.2722753  74.6391313  61.2936993  23.6492753  74.0271313
  61.9966993  23.6252753  74.3731313  56.5386993  34.9672753  86.9221313
  56.8306993  34.9002753  87.7421313  55.9126993  34.3622753  86.8771313
  56.4896993  34.8682753  87.0371313  60.9286993  31.6552753  74.2061313
  60.7476993  32.2002753  74.8631313  61.6946993  31.9452753  73.9051313
  61.0146993  31.7792753  74.2591313  52.3896993  20.7192753  77.8291313
  52.2756993  19.8552753  77.8601313  51.9146993  21.0132753  78.4991313
  52.3026993  20.6352753  77.9321313  54.5316993  33.1292753  86.0441313
  53.8336993  32.6212753  86.1701313  54.7916993  32.9242753  85.2361313
  54.4666993  33.0242753  85.9431313  61.6936993  21.9272753  76.5741313
  61.1856993  21.2652753  76.3201313  61.7456993  22.4312753  75.8641313
  61.6266993  21.9042753  76.4321313  62.2426993  34.6222753  86.9541313
  63.0106993  34.5422753  86.5481313  61.6596993  34.5012753  86.3161313
  62.2696993  34.5922753  86.8001313  61.6936993  18.8682753  76.4651313
  61.2386993  18.4662753  75.8391313  62.4666993  19.0232753  76.0901313
  61.7406993  18.8322753  76.3171313  60.2916993  21.2352753  80.9871313
  60.3656993  21.8032753  80.3291313  60.4126993  21.7272753  81.6971313
  60.3196993  21.3922753  80.9951313  54.8996993  17.0582753  79.3351313
  55.4356993  17.7462753  79.3251313  54.9026993  16.7842753  78.5071313
  54.9786993  17.1192753  79.2111313  57.8556993  27.4912753  83.3601313
  58.0276993  27.2812753  84.1891313  57.2006993  26.9572753  83.1441313
  57.7846993  27.3812753  83.4511313  58.6056993  27.4292753  85.9501313
  58.6586993  28.2762753  86.1521313  58.3206993  27.0592753  86.6871313
  58.5716993  27.4992753  86.0881313  55.3476993  20.8682753  80.9891313
  55.6196993  20.4382753  80.2811313  55.1716993  20.2322753  81.5601313
  55.3616993  20.7112753  80.9691313  55.1716993  28.2952753  80.5381313
  56.0226993  28.2152753  80.3651313  54.8146993  27.6132753  80.1261313
  55.2446993  28.1822753  80.4511313  53.9386993  35.0202753  81.7751313
  53.2656993  34.5222753  81.5301313  54.3416993  35.2052753  81.0241313
  53.8986993  34.9742753  81.6281313  53.4886993  21.9702753  84.0711313
  54.3316993  22.1902753  84.0281313  53.0996993  22.5432753  83.5401313
  53.5556993  22.0872753  83.9861313  57.5396993  28.3022753  78.7731313
  58.2526993  28.7972753  78.8631313  57.7616993  27.7352753  78.1471313
  57.6776993  28.2912753  78.6941313  51.6956993  29.9452753  82.0931313
  51.0286993  30.4332753  82.3691313  52.3756993  30.4902753  82.1221313
  51.6976993  30.0972753  82.1381313  51.7616993  26.6292753  77.1961313
  51.5766993  25.7902753  77.3481313  52.4206993  26.5932753  76.6261313
  51.8316993  26.5002753  77.1341313  62.0626993  32.0052753  81.1001313
  61.5396993  32.6392753  80.8071313  62.3726993  31.6412753  80.3711313
  62.0306993  32.0452753  80.9491313  51.9336993  30.7932753  76.7711313
  52.4856993  31.3622753  77.1351313  51.7016993  30.2782753  77.4361313
  51.9806993  30.8012753  76.9231313  56.1376993  29.7932753  83.8601313
  56.6046993  30.0822753  84.5381313  56.7096993  29.3152753  83.4061313
  56.2916993  29.7652753  83.8931313  51.7636993  29.2422753  74.3991313
  52.5196993  28.8102753  74.4571313  51.7786993  29.7742753  75.0901313
  51.8776993  29.2572753  74.5101313  52.7036993  27.4632753  82.4041313
  53.1346993  27.3342753  81.6571313  52.4986993  28.3112753  82.3781313
  52.7366993  27.5692753  82.2901313  59.0496993  21.0272753  76.0541313
  59.0476993  20.9102753  75.1891313  58.8686993  21.8752753  76.1461313
  59.0226993  21.1352753  75.9401313  56.7876993  30.9792753  80.6861313
  56.9136993  31.8222753  80.8731313  57.4556993  30.5802753  81.0821313
  56.9056993  31.0452753  80.7721313  55.4026993  23.8592753  75.6881313
  55.2746993  23.4112753  76.4261313  54.8206993  23.5172753  75.1361313
  55.2976993  23.7422753  75.7161313  55.5696993  25.6892753  82.2871313
  54.7886993  25.6302753  81.9041313  55.6416993  24.9372753  82.7241313
  55.4646993  25.5702753  82.2951313  55.9996993  25.4262753  85.7551313
  56.0246993  24.7512753  85.2041313  55.3536993  25.9222753  85.4431313
  55.9086993  25.3992753  85.6281313  60.0996993  34.2032753  85.1471313
  59.8226993  33.5622753  84.6241313  59.8916993  34.9292753  84.7091313
  60.0286993  34.2162753  85.0051313  60.6696993  22.5782753  83.3871313
  61.1496993  23.2772753  83.5951313  61.0426993  21.9312753  83.8381313
  60.7956993  22.5862753  83.4841313  62.8586993  25.7472753  75.6611313
  62.8506993  26.4692753  75.1711313  62.2196993  25.8822753  76.2381313
  62.7636993  25.8742753  75.6741313  57.7806993  34.3462753  77.3341313
  57.6336993  33.5702753  77.7051313  58.4696993  34.1992753  76.8191313
  57.8606993  34.2092753  77.3131313  57.4516993  18.0892753  75.3221313
  57.5486993  17.9822753  76.1831313  56.7436993  18.5952753  75.2571313
  57.3616993  18.1482753  75.4401313  60.0726993  33.8622753  75.7361313
  60.6946993  34.0252753  76.3261313  60.1086993  34.5532753  75.2041313
  60.1696993  33.9882753  75.7451313  54.5736993  26.3962753  76.5651313
  54.8976993  25.6172753  76.3431313  55.2196993  26.7642753  77.0201313
  54.7166993  26.3352753  76.5991313  51.5706993  18.0572753  77.5331313
  51.6996993  17.3492753  77.0411313  51.2036993  17.7392753  78.2581313
  51.5356993  17.9052753  77.5681313  61.2636993  25.7382753  77.9901313
  61.3226993  26.3882753  78.5691313  61.0746993  25.0422753  78.4811313
  61.2446993  25.7312753  78.1481313  55.7596993  20.2552753  74.5021313
  55.2486993  20.3082753  73.7961313  56.5436993  20.4952753  74.2061313
  55.7996993  20.2982753  74.3541313  60.4866993  27.7852753  82.4211313
  59.6396993  27.5912753  82.5021313  60.8106993  27.6202753  83.2141313
  60.4086993  27.7322753  82.5501313  57.2386993  34.5152753  73.3071313
  57.6776993  33.8182753  73.5951313  57.4456993  35.1392753  73.8801313
  57.3346993  34.5042753  73.4341313  54.3346993  27.4782753  84.7371313
  55.0566993  27.9662753  84.7001313  54.0646993  27.4482753  83.9081313
  54.4016993  27.5462753  84.6091313  57.5646993  22.6492753  81.4721313
  58.4106993  22.4592753  81.5701313  57.1946993  21.8722753  81.3341313
  57.6346993  22.5062753  81.4661313  52.3856993  23.9872753  78.1271313
  52.8746993  23.6952753  78.7881313  52.5146993  23.3942753  77.5001313
  52.4766993  23.8562753  78.1321313  56.9106993  25.4212753  73.6131313
  56.3006993  25.0162753  74.0871313  56.5246993  25.5392753  72.8401313
  56.7636993  25.3782753  73.5691313  58.3656993  23.8822753  76.3231313
  58.6376993  24.7082753  76.3901313  57.5026993  23.9572753  76.2271313
  58.2786993  24.0152753  76.3181313  51.8456993  19.8522753  82.8591313
  51.8896993  20.1962753  82.0581313  52.6006993  20.0892753  83.2261313
  51.9636993  19.9382753  82.7951313  58.4686993  30.3412753  85.6331313
  58.1706993  30.9332753  86.2001313  58.5236993  30.7832753  84.8841313
  58.4326993  30.4942753  85.6061313  60.9846993  26.7642753  85.1241313
  61.4606993  27.1382753  85.7521313  60.1616993  26.8982753  85.3831313
  60.9336993  26.8392753  85.2551313  60.2486993  34.1572753  80.3521313
  60.7946993  34.8362753  80.4061313  59.8986993  34.2392753  79.5571313
  60.2776993  34.2702753  80.2421313  59.4466993  18.1752753  87.7451313
  60.1516993  18.4952753  87.3431313  59.6876993  17.3682753  87.9721313
  59.5856993  18.1032753  87.7191313  58.4316993  32.3852753  83.7411313
  57.8076993  32.9672753  83.5591313  58.6796993  32.0992753  82.9551313
  58.3756993  32.4292753  83.5981313  60.0256993  27.1612753  73.6561313
  59.2206993  26.9842753  73.3711313  59.9926993  28.0122753  73.8481313
  59.9016993  27.2602753  73.6431313  55.9556993  23.2282753  83.8061313
  56.3956993  23.1252753  83.0601313  56.5006993  22.9152753  84.4111313
  56.1006993  23.1672753  83.7851313  59.5026993  18.2132753  83.8531313
  58.6766993  18.0642753  84.0901313  59.4626993  18.2482753  82.9821313
  59.3746993  18.1962753  83.7591313  56.9736993  35.4602753  83.9581313
  56.9846993  35.5192753  84.8281313  56.5486993  34.7132753  83.8081313
  56.9126993  35.3582753  84.0641313  55.1316993  21.3552753  77.1131313
  55.2576993  21.0262753  76.3151313  54.3196993  21.1062753  77.3121313
  55.0306993  21.2702753  77.0251313  61.4106993  27.7822753  79.7221313
  61.1126993  27.4672753  80.4791313  62.1056993  28.2552753  79.9571313
  61.4696993  27.8052753  79.8691313  62.0406993  29.8282753  85.1821313
  61.3466993  30.2302753  85.5251313  62.7176993  30.2612753  85.5211313
  62.0376993  29.9512753  85.2831313  55.1086993  23.3662753  87.5291313
  55.4836993  23.9852753  87.0421313  55.7826993  22.8922753  87.8141313
  55.2636993  23.3882753  87.4991313  52.8836993  21.8142753  86.8041313
  52.9606993  21.6452753  85.9511313  53.6296993  22.2202753  87.0011313
  53.0046993  21.8492753  86.7071313  62.3626993  31.4192753  78.3511313
  62.1576993  32.2522753  78.1921313  61.5876993  31.0372753  78.4731313
  62.2176993  31.4862753  78.3461313  52.2806993  27.0402753  87.0281313
  52.6006993  27.2592753  86.2471313  52.1806993  26.1752753  86.9731313
  52.3126993  26.9452753  86.9051313  53.7366993  22.9762753  73.6461313
  53.0646993  22.9902753  74.2021313  53.8316993  22.1282753  73.4621313
  53.6516993  22.8532753  73.7011313  62.4176993  19.5902753  81.2361313
  61.7176993  20.1082753  81.1801313  62.4556993  19.2102753  80.4521313
  62.3196993  19.6112753  81.1121313  57.7246993  31.6812753  74.7601313
  58.1656993  31.7612753  75.5081313  56.9196993  31.4652753  75.0181313
  57.6706993  31.6612753  74.9091313  55.0536993  30.7512753  75.3611313
  54.8096993  30.4442753  76.1411313  55.0206993  30.0482753  74.8451313
  55.0126993  30.6022753  75.4001313  57.8726993  28.9962753  74.1041313
  57.0546993  28.7282753  74.2441313  57.8446993  29.8482753  74.2891313
  57.7476993  29.0832753  74.1521313  57.4726993  19.3092753  85.8631313
  56.6086993  19.3932753  85.9431313  57.6926993  18.7952753  86.5321313
  57.3776993  19.2462753  85.9741313  61.5756993  20.0572753  84.2371313
  60.8386993  19.6032753  84.3501313  62.1466993  19.6552753  84.7601313
  61.5506993  19.9302753  84.3311313  59.8746993  17.6382753  74.0681313
  59.9526993  17.8852753  73.2351313  59.1316993  18.0152753  74.3261313
  59.7766993  17.7302753  73.9831313  54.6926993  19.3922753  86.5111313
  54.3496993  18.6252753  86.2771313  53.9976993  19.9162753  86.5751313
  54.5396993  19.3562753  86.4861313  53.3456993  22.7062753  80.4671313
  52.9776993  23.0082753  81.1981313  53.8796993  22.0772753  80.7511313
  53.3696993  22.6582753  80.6171313  54.8196993  34.3812753  76.7531313
  54.6746993  34.5372753  75.9071313  55.6856993  34.4602753  76.8311313
  54.9266993  34.4162753  76.6401313  58.9866993  26.7782753  76.4811313
  59.0866993  26.9172753  75.6261313  59.8046993  26.7182753  76.7771313
  59.1216993  26.7892753  76.3981313  55.5066993  33.1962753  83.2301313
  55.4276993  32.3862753  82.9141313  55.0626993  33.6832753  82.6581313
  55.4296993  33.1482753  83.0991313  61.1076993  29.3152753  75.7131313
  61.8246993  28.9682753  75.3571313  61.0736993  30.1152753  75.3651313
  61.2086993  29.3822753  75.6091313  53.0786993  35.4402753  86.8111313
  53.5716993  35.3842753  87.5291313  53.2666993  34.7072753  86.3761313
  53.1796993  35.3232753  86.8531313  62.3256993  24.8722753  64.6228903
  61.8016993  25.4682753  64.9858903  62.7226993  24.5042753  65.3068903
  62.3066993  24.9062753  64.7778903  52.1946993  29.0122753  60.0788903
  51.7536993  29.1302753  60.8218903  51.9116993  28.2372753  59.7938903
  52.0876993  28.9152753  60.1468903  51.9376993  22.8042753  56.5858903
  51.1596993  22.9662753  56.2258903  51.9766993  21.9332753  56.6078903
  51.8286993  22.6992753  56.5358903  55.0766993  28.0672753  55.2578903
  54.6846993  27.6962753  54.5718903  54.9966993  27.4692753  55.8868903
  55.0066993  27.9242753  55.2488903  54.7036993  29.7082753  59.1578903
  55.3116993  29.5382753  59.7608903  53.9526993  29.5682753  59.5788903
  54.6826993  29.6622753  59.3088903  58.9856993  19.0432753  59.1068903
  58.9156993  19.7202753  58.5608903  59.7266993  18.6552753  58.8578903
  59.0846993  19.0862753  58.9888903  53.5946993  32.7992753  55.2348903
  54.0616993  32.8832753  54.5028903  54.0496993  32.2212753  55.7038903
  53.7306993  32.7262753  55.1958903  52.1346993  31.7472753  66.3338903
  52.2636993  31.4672753  67.1498903  51.5246993  31.2062753  66.0248903
  52.0636993  31.6262753  66.4088903  58.7086993  29.2722753  71.4008903
  58.4726993  29.2692753  72.2408903  57.9606993  29.1242753  70.9768903
  58.5626993  29.2492753  71.4618903  53.5806993  26.2682753  60.5358903
  53.1186993  25.8762753  59.9088903  54.2806993  25.7552753  60.6278903
  53.6156993  26.1352753  60.4568903  58.0886993  21.8782753  65.8828903
  58.7666993  21.8962753  65.3338903  58.0436993  21.0422753  66.1278903
  58.1816993  21.7572753  65.8378903  58.6906993  32.4642753  68.6638903
  58.8286993  33.2242753  68.2568903  59.4816993  32.0992753  68.6908903
  58.8276993  32.5232753  68.6078903  55.5816993  24.3682753  60.5588903
  56.3986993  24.1812753  60.8018903  55.1046993  23.7542753  60.9548903
  55.6316993  24.2502753  60.6538903  59.7856993  30.3492753  63.1688903
  60.1336993  29.5502753  63.1988903  60.4506993  30.8532753  62.9138903
  59.9356993  30.3052753  63.1358903  59.8426993  29.7982753  59.3798903
  60.1736993  29.1542753  59.8658903  60.0826993  29.5872753  58.5688903
  59.9266993  29.6722753  59.3318903  61.8106993  23.9292753  70.7188903
  60.9626993  23.8302753  70.5408903  61.8396993  24.6742753  71.1728903
  61.6896993  24.0252753  70.7598903  56.1786993  19.4622753  59.8248903
  55.8826993  19.9632753  59.1748903  57.0456993  19.5402753  59.7678903
  56.2626993  19.5482753  59.7208903  59.1576993  18.6042753  62.0478903
  59.2306993  19.4642753  62.1768903  59.1196993  18.5292753  61.1798903
  59.1626993  18.7202753  61.9388903  52.0366993  24.0292753  63.5488903
  51.7806993  24.8602753  63.4738903  51.3726993  23.6462753  63.9658903
  51.9006993  24.0952753  63.5998903  51.9466993  33.7392753  61.4488903
  51.3546993  34.2972753  61.1358903  52.3726993  33.4702753  60.7368903
  51.9226993  33.7812753  61.2978903  57.7866993  31.5832753  58.9288903
  57.2076993  31.3082753  59.5208903  58.4106993  30.9742753  58.9538903
  57.7936993  31.4532753  59.0198903  62.0976993  34.2632753  58.4408903
  62.3116993  34.7902753  59.1028903  62.8646993  34.0892753  58.0618903
  62.2426993  34.3152753  58.4828903  55.0656993  18.8462753  64.0398903
  54.5446993  18.2182753  63.7318903  55.6566993  18.4092753  64.5108903
  55.0766993  18.6882753  64.0638903  58.3716993  20.9792753  73.3378903
  58.4886993  20.5252753  72.6018903  58.6596993  21.7772753  73.1348903
  58.4316993  21.0302753  73.1988903  53.4916993  32.4092753  59.3798903
  54.1476993  31.8342753  59.3948903  53.8806993  33.1582753  59.1588903
  53.6466993  32.4342753  59.3498903  54.1046993  20.5762753  72.3218903
  53.3266993  20.1862753  72.2498903  54.5956993  20.1642753  71.7308903
  54.0616993  20.4572753  72.2238903  54.3096993  30.8962753  62.8798903
  54.7326993  30.5402753  62.2058903  54.6336993  30.4742753  63.5718903
  54.4196993  30.7812753  62.8828903  57.5406993  33.7482753  62.1758903
  58.3846993  33.8522753  61.9808903  57.2436993  34.5662753  62.2438903
  57.6216993  33.8842753  62.1568903  60.7536993  18.2192753  71.4898903
  60.9316993  17.4102753  71.2148903  60.6106993  18.6602753  70.7508903
  60.7586993  18.1652753  71.3398903  61.3476993  23.1452753  60.2628903
  61.6346993  22.9132753  59.4728903  62.0796993  23.2242753  60.7318903
  61.4976993  23.1222753  60.2158903  62.0696993  23.4842753  55.3838903
  62.3506993  24.2722753  55.6328903  61.2936993  23.6492753  55.0208903
  61.9966993  23.6252753  55.3668903  56.5386993  34.9672753  67.9158903
  56.8306993  34.9002753  68.7358903  55.9126993  34.3622753  67.8708903
  56.4896993  34.8682753  68.0308903  51.4526993  21.1242753  69.9078903
  51.4486993  21.7112753  70.5538903  52.0466993  21.4362753  69.3508903
  51.5396993  21.2572753  69.9208903  60.9286993  31.6552753  55.1998903
  60.7476993  32.2002753  55.8568903  61.6946993  31.9452753  54.8988903
  61.0146993  31.7792753  55.2528903  52.3896993  20.7192753  58.8228903
  52.2756993  19.8552753  58.8538903  51.9146993  21.0132753  59.4928903
  52.3026993  20.6352753  58.9258903  54.5316993  33.1292753  67.0378903
  53.8336993  32.6212753  67.1638903  54.7916993  32.9242753  66.2298903
  54.4666993  33.0242753  66.9368903  61.6936993  21.9272753  57.5678903
  61.1856993  21.2652753  57.3138903  61.7456993  22.4312753  56.8578903
  61.6266993  21.9042753  57.4258903  62.2426993  34.6222753  67.9478903
  63.0106993  34.5422753  67.5418903  61.6596993  34.5012753  67.3098903
  62.2696993  34.5922753  67.7938903  61.6936993  18.8682753  57.4588903
  61.2386993  18.4662753  56.8328903  62.4666993  19.0232753  57.0838903
  61.7406993  18.8322753  57.3108903  60.2916993  21.2352753  61.9808903
  60.3656993  21.8032753  61.3228903  60.4126993  21.7272753  62.6908903
  60.3196993  21.3922753  61.9888903  55.8926993  31.9802753  69.6048903
  56.7336993  32.0432753  69.3828903  55.8556993  32.3772753  70.3808903
  56.0116993  32.0482753  69.6868903  54.8996993  17.0582753  60.3288903
  55.4356993  17.7462753  60.3188903  54.9026993  16.7842753  59.5008903
  54.9786993  17.1192753  60.2048903  57.8556993  27.4912753  64.3538903
  58.0276993  27.2812753  65.1828903  57.2006993  26.9572753  64.1378903
  57.7846993  27.3812753  64.4448903  58.6056993  27.4292753  66.9438903
  58.6586993  28.2762753  67.1458903  58.3206993  27.0592753  67.6808903
  58.5716993  27.4992753  67.0818903  51.4266993  31.8002753  73.1548903
  52.1826993  32.1492753  73.4128903  51.6036993  30.9472753  73.0978903
  51.5646993  31.7252753  73.1848903  55.3476993  20.8682753  61.9828903
  55.6196993  20.4382753  61.2748903  55.1716993  20.2322753  62.5538903
  55.3616993  20.7112753  61.9628903  55.1716993  28.2952753  61.5318903
  56.0226993  28.2152753  61.3588903  54.8146993  27.6132753  61.1198903
  55.2446993  28.1822753  61.4448903  53.9386993  35.0202753  62.7688903
  53.2656993  34.5222753  62.5238903  54.3416993  35.2052753  62.0178903
  53.8986993  34.9742753  62.6218903  53.4886993  21.9702753  65.0648903
  54.3316993  22.1902753  65.0218903  53.0996993  22.5432753  64.5338903
  53.5556993  22.0872753  64.9798903  57.5396993  28.3022753  59.7668903
  58.2526993  28.7972753  59.8568903  57.7616993  27.7352753  59.1408903
  57.6776993  28.2912753  59.6878903  51.6956993  29.9452753  63.0868903
  51.0286993  30.4332753  63.3628903  52.3756993  30.4902753  63.1158903
  51.6976993  30.0972753  63.1318903  59.3426993  23.6552753  73.1828903
  58.8586993  24.2322753  73.6248903  59.3146993  23.9502753  72.3618903
  59.2666993  23.7842753  73.1268903  51.7616993  26.6292753  58.1898903
  51.5766993  25.7902753  58.3418903  52.4206993  26.5932753  57.6198903
  51.8316993  26.5002753  58.1278903  62.0626993  32.0052753  62.0938903
  61.5396993  32.6392753  61.8008903  62.3726993  31.6412753  61.3648903
  62.0306993  32.0452753  61.9428903  51.9336993  30.7932753  57.7648903
  52.4856993  31.3622753  58.1288903  51.7016993  30.2782753  58.4298903
  51.9806993  30.8012753  57.9168903  56.1376993  29.7932753  64.8538903
  56.6046993  30.0822753  65.5318903  56.7096993  29.3152753  64.3998903
  56.2916993  29.7652753  64.8868903  51.7636993  29.2422753  55.3928903
  52.5196993  28.8102753  55.4508903  51.7786993  29.7742753  56.0838903
  51.8776993  29.2572753  55.5038903  52.7036993  27.4632753  63.3978903
  53.1346993  27.3342753  62.6508903  52.4986993  28.3112753  63.3718903
  52.7366993  27.5692753  63.2838903  59.0496993  21.0272753  57.0478903
  59.0476993  20.9102753  56.1828903  58.8686993  21.8752753  57.1398903
  59.0226993  21.1352753  56.9338903  56.7876993  30.9792753  61.6798903
  56.9136993  31.8222753  61.8668903  57.4556993  30.5802753  62.0758903
  56.9056993  31.0452753  61.7658903  54.9176993  24.4622753  71.5418903
  54.3816993  23.9562753  72.0098903  54.9376993  24.0722753  70.7618903
  54.8406993  24.3292753  71.4958903  55.4026993  23.8592753  56.6818903
  55.2746993  23.4112753  57.4198903  54.8206993  23.5172753  56.1298903
  55.2976993  23.7422753  56.7098903  55.5696993  25.6892753  63.2808903
  54.7886993  25.6302753  62.8978903  55.6416993  24.9372753  63.7178903
  55.4646993  25.5702753  63.2888903  55.9996993  25.4262753  66.7488903
  56.0246993  24.7512753  66.1978903  55.3536993  25.9222753  66.4368903
  55.9086993  25.3992753  66.6218903  60.0996993  34.2032753  66.1408903
  59.8226993  33.5622753  65.6178903  59.8916993  34.9292753  65.7028903
  60.0286993  34.2162753  65.9988903  62.5396993  19.0452753  68.5738903
  62.6886993  18.2202753  68.3308903  62.9186993  19.1002753  69.3578903
  62.6176993  18.9312753  68.6538903  53.7986993  26.7812753  72.3078903
  53.7616993  27.2822753  71.5938903  54.1296993  26.0292753  72.0128903
  53.8416993  26.7432753  72.1588903  59.6976993  31.8312753  71.7428903
  60.0516993  31.6532753  72.5198903  59.2616993  31.1022753  71.5438903
  59.6856993  31.6972753  71.8288903  60.6696993  22.5782753  64.3808903
  61.1496993  23.2772753  64.5888903  61.0426993  21.9312753  64.8318903
  60.7956993  22.5862753  64.4778903  62.8586993  25.7472753  56.6548903
  62.8506993  26.4692753  56.1648903  62.2196993  25.8822753  57.2318903
  62.7636993  25.8742753  56.6678903  57.7806993  34.3462753  58.3278903
  57.6336993  33.5702753  58.6988903  58.4696993  34.1992753  57.8128903
  57.8606993  34.2092753  58.3068903  57.4516993  18.0892753  56.3158903
  57.5486993  17.9822753  57.1768903  56.7436993  18.5952753  56.2508903
  57.3616993  18.1482753  56.4338903  60.0726993  33.8622753  56.7298903
  60.6946993  34.0252753  57.3198903  60.1086993  34.5532753  56.1978903
  60.1696993  33.9882753  56.7388903  54.5736993  26.3962753  57.5588903
  54.8976993  25.6172753  57.3368903  55.2196993  26.7642753  58.0138903
  54.7166993  26.3352753  57.5928903  51.5706993  18.0572753  58.5268903
  51.6996993  17.3492753  58.0348903  51.2036993  17.7392753  59.2518903
  51.5356993  17.9052753  58.5618903  61.2636993  25.7382753  58.9838903
  61.3226993  26.3882753  59.5628903  61.0746993  25.0422753  59.4748903
  61.2446993  25.7312753  59.1418903  55.7596993  20.2552753  55.4958903
  55.2486993  20.3082753  54.7898903  56.5436993  20.4952753  55.1998903
  55.7996993  20.2982753  55.3478903  60.4866993  27.7852753  63.4148903
  59.6396993  27.5912753  63.4958903  60.8106993  27.6202753  64.2078903
  60.4086993  27.7322753  63.5438903  57.2386993  34.5152753  54.3008903
  57.6776993  33.8182753  54.5888903  57.4456993  35.1392753  54.8738903
  57.3346993  34.5042753  54.4278903  54.3346993  27.4782753  65.7308903
  55.0566993  27.9662753  65.6938903  54.0646993  27.4482753  64.9018903
  54.4016993  27.5462753  65.6028903  57.5646993  22.6492753  62.4658903
  58.4106993  22.4592753  62.5638903  57.1946993  21.8722753  62.3278903
  57.6346993  22.5062753  62.4598903  52.3856993  23.9872753  59.1208903
  52.8746993  23.6952753  59.7818903  52.5146993  23.3942753  58.4938903
  52.4766993  23.8562753  59.1258903  56.9106993  25.4212753  54.6068903
  56.3006993  25.0162753  55.0808903  56.5246993  25.5392753  53.8338903
  56.7636993  25.3782753  54.5628903  53.7296993  28.5302753  70.0088903
  53.3086993  28.0122753  69.4478903  53.3776993  29.3162753  69.8658903
  53.6156993  28.5702753  69.9048903  58.3656993  23.8822753  57.3168903
  58.6376993  24.7082753  57.3838903  57.5026993  23.9572753  57.2208903
  58.2786993  24.0152753  57.3118903  51.8456993  19.8522753  63.8528903
  51.8896993  20.1962753  63.0518903  52.6006993  20.0892753  64.2198903
  51.9636993  19.9382753  63.7888903  58.4686993  30.3412753  66.6268903
  58.1706993  30.9332753  67.1938903  58.5236993  30.7832753  65.8778903
  58.4326993  30.4942753  66.5998903  56.4476993  29.2912753  70.0248903
  55.6416993  29.0012753  70.1918903  56.3586993  30.1592753  70.0308903
  56.3156993  29.3762753  70.0498903  60.9846993  26.7642753  66.1178903
  61.4606993  27.1382753  66.7458903  60.1616993  26.8982753  66.3768903
  60.9336993  26.8392753  66.2488903  57.6946993  22.3672753  68.8588903
  57.8556993  21.6232753  69.2858903  57.6496993  22.1182753  68.0238903
  57.7116993  22.2202753  68.7988903  60.2486993  34.1572753  61.3458903
  60.7946993  34.8362753  61.3998903  59.8986993  34.2392753  60.5508903
  60.2776993  34.2702753  61.2358903  59.4466993  18.1752753  68.7388903
  60.1516993  18.4952753  68.3368903  59.6876993  17.3682753  68.9658903
  59.5856993  18.1032753  68.7128903  58.4316993  32.3852753  64.7348903
  57.8076993  32.9672753  64.5528903  58.6796993  32.0992753  63.9488903
  58.3756993  32.4292753  64.5918903  60.0256993  27.1612753  54.6498903
  59.2206993  26.9842753  54.3648903  59.9926993  28.0122753  54.8418903
  59.9016993  27.2602753  54.6368903  55.9556993  23.2282753  64.7998903
  56.3956993  23.1252753  64.0538903  56.5006993  22.9152753  65.4048903
  56.1006993  23.1672753  64.7788903  61.0846993  34.0342753  70.6148903
  61.5626993  33.4342753  70.1988903  60.7336993  33.5912753  71.2798903
  61.1036993  33.8802753  70.6518903  59.5026993  18.2132753  64.8468903
  58.6766993  18.0642753  65.0838903  59.4626993  18.2482753  63.9758903
  59.3746993  18.1962753  64.7528903  61.1436993  29.2532753  69.6348903
  60.3486993  29.1892753  69.9858903  61.2146993  30.1002753  69.4398903
  61.0366993  29.3682753  69.6578903  52.0676993  18.6112753  70.8818903
  51.9276993  19.4062753  70.5508903  51.2816993  18.3682753  71.1708903
  51.9306993  18.6932753  70.8758903  56.9736993  35.4602753  64.9518903
  56.9846993  35.5192753  65.8218903  56.5486993  34.7132753  64.8018903
  56.9126993  35.3582753  65.0578903  55.1316993  21.3552753  58.1068903
  55.2576993  21.0262753  57.3088903  54.3196993  21.1062753  58.3058903
  55.0306993  21.2702753  58.0188903  61.4106993  27.7822753  60.7158903
  61.1126993  27.4672753  61.4728903  62.1056993  28.2552753  60.9508903
  61.4696993  27.8052753  60.8628903  61.6326993  31.9002753  68.7428903
  62.3196993  31.7862753  69.2678903  61.7666993  32.6912753  68.3988903
  61.7536993  32.0002753  68.7698903  53.7376993  34.9582753  70.3938903
  53.0836993  34.3892753  70.4918903  53.3626993  35.7312753  70.5448903
  53.5856993  34.9882753  70.4308903  62.2556993  26.3642753  72.3168903
  62.5786993  27.0502753  71.8848903  61.5516993  26.6872753  72.7188903
  62.1986993  26.5132753  72.3118903  62.0406993  29.8282753  66.1758903
  61.3466993  30.2302753  66.5188903  62.7176993  30.2612753  66.5148903
  62.0376993  29.9512753  66.2768903  55.1086993  23.3662753  68.5228903
  55.4836993  23.9852753  68.0358903  55.7826993  22.8922753  68.8078903
  55.2636993  23.3882753  68.4928903  52.8836993  21.8142753  67.7978903
  52.9606993  21.6452753  66.9448903  53.6296993  22.2202753  67.9948903
  53.0046993  21.8492753  67.7008903  55.4376993  19.2242753  70.2088903
  55.3566993  18.3802753  70.4148903  55.1236993  19.2682753  69.3958903
  55.3796993  19.1062753  70.1188903  62.3626993  31.4192753  59.3448903
  62.1576993  32.2522753  59.1858903  61.5876993  31.0372753  59.4668903
  62.2176993  31.4862753  59.3398903  52.2806993  27.0402753  68.0218903
  52.6006993  27.2592753  67.2408903  52.1806993  26.1752753  67.9668903
  52.3126993  26.9452753  67.8988903  53.7366993  22.9762753  54.6398903
  53.0646993  22.9902753  55.1958903  53.8316993  22.1282753  54.4558903
  53.6516993  22.8532753  54.6948903  62.4176993  19.5902753  62.2298903
  61.7176993  20.1082753  62.1738903  62.4556993  19.2102753  61.4458903
  62.3196993  19.6112753  62.1058903  57.7246993  31.6812753  55.7538903
  58.1656993  31.7612753  56.5018903  56.9196993  31.4652753  56.0118903
  57.6706993  31.6612753  55.9028903  57.0436993  26.3322753  69.4068903
  56.6476993  27.1062753  69.4818903  56.6376993  25.9592753  68.7308903
  56.9256993  26.3912753  69.3178903  55.0536993  30.7512753  56.3548903
  54.8096993  30.4442753  57.1348903  55.0206993  30.0482753  55.8388903
  55.0126993  30.6022753  56.3938903  57.8726993  28.9962753  55.0978903
  57.0546993  28.7282753  55.2378903  57.8446993  29.8482753  55.2828903
  57.7476993  29.0832753  55.1458903  57.4726993  19.3092753  66.8568903
  56.6086993  19.3932753  66.9368903  57.6926993  18.7952753  67.5258903
  57.3776993  19.2462753  66.9678903  61.5756993  20.0572753  65.2308903
  60.8386993  19.6032753  65.3438903  62.1466993  19.6552753  65.7538903
  61.5506993  19.9302753  65.3248903  59.0786993  24.3862753  70.4348903
  58.7566993  23.8102753  69.8648903  58.7196993  25.1412753  70.1888903
  58.9786993  24.4122753  70.3148903  59.8746993  17.6382753  55.0618903
  59.9526993  17.8852753  54.2288903  59.1316993  18.0152753  55.3198903
  59.7766993  17.7302753  54.9768903  57.5136993  34.7422753  70.6828903
  57.5546993  34.8682753  71.5458903  58.1646993  34.1822753  70.5268903
  57.6156993  34.6782753  70.7878903  54.6926993  19.3922753  67.5048903
  54.3496993  18.6252753  67.2708903  53.9976993  19.9162753  67.5688903
  54.5396993  19.3562753  67.4798903  55.1066993  33.1252753  72.0428903
  55.7016993  33.5562753  72.5148903  54.7426993  33.7492753  71.5538903
  55.1406993  33.2812753  72.0398903  53.3456993  22.7062753  61.4608903
  52.9776993  23.0082753  62.1918903  53.8796993  22.0772753  61.7448903
  53.3696993  22.6582753  61.6108903  53.0336993  31.1142753  68.9718903
  52.4596993  31.5302753  69.4808903  53.7666993  31.5792753  69.0668903
  53.0576993  31.2442753  69.0608903  54.8196993  34.3812753  57.7468903
  54.6746993  34.5372753  56.9008903  55.6856993  34.4602753  57.8248903
  54.9266993  34.4162753  57.6338903  58.9866993  26.7782753  57.4748903
  59.0866993  26.9172753  56.6198903  59.8046993  26.7182753  57.7708903
  59.1216993  26.7892753  57.3918903  58.1256993  19.7532753  70.5908903
  58.3596993  19.1772753  69.9778903  57.2836993  19.5722753  70.7318903
  58.0356993  19.6412753  70.5208903  55.5066993  33.1962753  64.2238903
  55.4276993  32.3862753  63.9078903  55.0626993  33.6832753  63.6518903
  55.4296993  33.1482753  64.0928903  61.1076993  29.3152753  56.7068903
  61.8246993  28.9682753  56.3508903  61.0736993  30.1152753  56.3588903
  61.2086993  29.3822753  56.6028903  53.0786993  35.4402753  67.8048903
  53.5716993  35.3842753  68.5228903  53.2666993  34.7072753  67.3698903
  53.1796993  35.3232753  67.8468903  62.3256993  24.8722753  45.6166493
  61.8016993  25.4682753  45.9796493  62.7226993  24.5042753  46.3006493
  62.3066993  24.9062753  45.7716493  52.1946993  29.0122753  41.0726493
  51.7536993  29.1302753  41.8156493  51.9116993  28.2372753  40.7876493
  52.0876993  28.9152753  41.1406493  51.9376993  22.8042753  37.5796493
  51.1596993  22.9662753  37.2196493  51.9766993  21.9332753  37.6016493
  51.8286993  22.6992753  37.5296493  55.0766993  28.0672753  36.2516493
  54.6846993  27.6962753  35.5656493  54.9966993  27.4692753  36.8806493
  55.0066993  27.9242753  36.2426493  54.7036993  29.7082753  40.1516493
  55.3116993  29.5382753  40.7546493  53.9526993  29.5682753  40.5726493
  54.6826993  29.6622753  40.3026493  58.9856993  19.0432753  40.1006493
  58.9156993  19.7202753  39.5546493  59.7266993  18.6552753  39.8516493
  59.0846993  19.0862753  39.9826493  53.5946993  32.7992753  36.2286493
  54.0616993  32.8832753  35.4966493  54.0496993  32.2212753  36.6976493
  53.7306993  32.7262753  36.1896493  52.1346993  31.7472753  47.3276493
  52.2636993  31.4672753  48.1436493  51.5246993  31.2062753  47.0186493
  52.0636993  31.6262753  47.4026493  58.7086993  29.2722753  52.3946493
  58.4726993  29.2692753  53.2346493  57.9606993  29.1242753  51.9706493
  58.5626993  29.2492753  52.4556493  53.5806993  26.2682753  41.5296493
  53.1186993  25.8762753  40.9026493  54.2806993  25.7552753  41.6216493
  53.6156993  26.1352753  41.4506493  58.0886993  21.8782753  46.8766493
  58.7666993  21.8962753  46.3276493  58.0436993  21.0422753  47.1216493
  58.1816993  21.7572753  46.8316493  58.6906993  32.4642753  49.6576493
  58.8286993  33.2242753  49.2506493  59.4816993  32.0992753  49.6846493
  58.8276993  32.5232753  49.6016493  55.5816993  24.3682753  41.5526493
  56.3986993  24.1812753  41.7956493  55.1046993  23.7542753  41.9486493
  55.6316993  24.2502753  41.6476493  59.7856993  30.3492753  44.1626493
  60.1336993  29.5502753  44.1926493  60.4506993  30.8532753  43.9076493
  59.9356993  30.3052753  44.1296493  59.8426993  29.7982753  40.3736493
  60.1736993  29.1542753  40.8596493  60.0826993  29.5872753  39.5626493
  59.9266993  29.6722753  40.3256493  61.8106993  23.9292753  51.7126493
  60.9626993  23.8302753  51.5346493  61.8396993  24.6742753  52.1666493
  61.6896993  24.0252753  51.7536493  56.1786993  19.4622753  40.8186493
  55.8826993  19.9632753  40.1686493  57.0456993  19.5402753  40.7616493
  56.2626993  19.5482753  40.7146493  59.1576993  18.6042753  43.0416493
  59.2306993  19.4642753  43.1706493  59.1196993  18.5292753  42.1736493
  59.1626993  18.7202753  42.9326493  52.0366993  24.0292753  44.5426493
  51.7806993  24.8602753  44.4676493  51.3726993  23.6462753  44.9596493
  51.9006993  24.0952753  44.5936493  51.9466993  33.7392753  42.4426493
  51.3546993  34.2972753  42.1296493  52.3726993  33.4702753  41.7306493
  51.9226993  33.7812753  42.2916493  57.7866993  31.5832753  39.9226493
  57.2076993  31.3082753  40.5146493  58.4106993  30.9742753  39.9476493
  57.7936993  31.4532753  40.0136493  62.0976993  34.2632753  39.4346493
  62.3116993  34.7902753  40.0966493  62.8646993  34.0892753  39.0556493
  62.2426993  34.3152753  39.4766493  55.0656993  18.8462753  45.0336493
  54.5446993  18.2182753  44.7256493  55.6566993  18.4092753  45.5046493
  55.0766993  18.6882753  45.0576493  58.3716993  20.9792753  54.3316493
  58.4886993  20.5252753  53.5956493  58.6596993  21.7772753  54.1286493
  58.4316993  21.0302753  54.1926493  53.4916993  32.4092753  40.3736493
  54.1476993  31.8342753  40.3886493  53.8806993  33.1582753  40.1526493
  53.6466993  32.4342753  40.3436493  54.1046993  20.5762753  53.3156493
  53.3266993  20.1862753  53.2436493  54.5956993  20.1642753  52.7246493
  54.0616993  20.4572753  53.2176493  54.3096993  30.8962753  43.8736493
  54.7326993  30.5402753  43.1996493  54.6336993  30.4742753  44.5656493
  54.4196993  30.7812753  43.8766493  57.5406993  33.7482753  43.1696493
  58.3846993  33.8522753  42.9746493  57.2436993  34.5662753  43.2376493
  57.6216993  33.8842753  43.1506493  60.7536993  18.2192753  52.4836493
  60.9316993  17.4102753  52.2086493  60.6106993  18.6602753  51.7446493
  60.7586993  18.1652753  52.3336493  61.3476993  23.1452753  41.2566493
  61.6346993  22.9132753  40.4666493  62.0796993  23.2242753  41.7256493
  61.4976993  23.1222753  41.2096493  62.0696993  23.4842753  36.3776493
  62.3506993  24.2722753  36.6266493  61.2936993  23.6492753  36.0146493
  61.9966993  23.6252753  36.3606493  56.5386993  34.9672753  48.9096493
  56.8306993  34.9002753  49.7296493  55.9126993  34.3622753  48.8646493
  56.4896993  34.8682753  49.0246493  51.4526993  21.1242753  50.9016493
  51.4486993  21.7112753  51.5476493  52.0466993  21.4362753  50.3446493
  51.5396993  21.2572753  50.9146493  60.9286993  31.6552753  36.1936493
  60.7476993  32.2002753  36.8506493  61.6946993  31.9452753  35.8926493
  61.0146993  31.7792753  36.2466493  52.3896993  20.7192753  39.8166493
  52.2756993  19.8552753  39.8476493  51.9146993  21.0132753  40.4866493
  52.3026993  20.6352753  39.9196493  54.5316993  33.1292753  48.0316493
  53.8336993  32.6212753  48.1576493  54.7916993  32.9242753  47.2236493
  54.4666993  33.0242753  47.9306493  61.6936993  21.9272753  38.5616493
  61.1856993  21.2652753  38.3076493  61.7456993  22.4312753  37.8516493
  61.6266993  21.9042753  38.4196493  62.2426993  34.6222753  48.9416493
  63.0106993  34.5422753  48.5356493  61.6596993  34.5012753  48.3036493
  62.2696993  34.5922753  48.7876493  61.6936993  18.8682753  38.4526493
  61.2386993  18.4662753  37.8266493  62.4666993  19.0232753  38.0776493
  61.7406993  18.8322753  38.3046493  60.2916993  21.2352753  42.9746493
  60.3656993  21.8032753  42.3166493  60.4126993  21.7272753  43.6846493
  60.3196993  21.3922753  42.9826493  55.8926993  31.9802753  50.5986493
  56.7336993  32.0432753  50.3766493  55.8556993  32.3772753  51.3746493
  56.0116993  32.0482753  50.6806493  54.8996993  17.0582753  41.3226493
  55.4356993  17.7462753  41.3126493  54.9026993  16.7842753  40.4946493
  54.9786993  17.1192753  41.1986493  57.8556993  27.4912753  45.3476493
  58.0276993  27.2812753  46.1766493  57.2006993  26.9572753  45.1316493
  57.7846993  27.3812753  45.4386493  58.6056993  27.4292753  47.9376493
  58.6586993  28.2762753  48.1396493  58.3206993  27.0592753  48.6746493
  58.5716993  27.4992753  48.0756493  51.4266993  31.8002753  54.1486493
  52.1826993  32.1492753  54.4066493  51.6036993  30.9472753  54.0916493
  51.5646993  31.7252753  54.1786493  55.3476993  20.8682753  42.9766493
  55.6196993  20.4382753  42.2686493  55.1716993  20.2322753  43.5476493
  55.3616993  20.7112753  42.9566493  55.1716993  28.2952753  42.5256493
  56.0226993  28.2152753  42.3526493  54.8146993  27.6132753  42.1136493
  55.2446993  28.1822753  42.4386493  53.9386993  35.0202753  43.7626493
  53.2656993  34.5222753  43.5176493  54.3416993  35.2052753  43.0116493
  53.8986993  34.9742753  43.6156493  53.4886993  21.9702753  46.0586493
  54.3316993  22.1902753  46.0156493  53.0996993  22.5432753  45.5276493
  53.5556993  22.0872753  45.9736493  57.5396993  28.3022753  40.7606493
  58.2526993  28.7972753  40.8506493  57.7616993  27.7352753  40.1346493
  57.6776993  28.2912753  40.6816493  51.6956993  29.9452753  44.0806493
  51.0286993  30.4332753  44.3566493  52.3756993  30.4902753  44.1096493
  51.6976993  30.0972753  44.1256493  59.3426993  23.6552753  54.1766493
  58.8586993  24.2322753  54.6186493  59.3146993  23.9502753  53.3556493
  59.2666993  23.7842753  54.1206493  51.7616993  26.6292753  39.1836493
  51.5766993  25.7902753  39.3356493  52.4206993  26.5932753  38.6136493
  51.8316993  26.5002753  39.1216493  62.0626993  32.0052753  43.0876493
  61.5396993  32.6392753  42.7946493  62.3726993  31.6412753  42.3586493
  62.0306993  32.0452753  42.9366493  51.9336993  30.7932753  38.7586493
  52.4856993  31.3622753  39.1226493  51.7016993  30.2782753  39.4236493
  51.9806993  30.8012753  38.9106493  56.1376993  29.7932753  45.8476493
  56.6046993  30.0822753  46.5256493  56.7096993  29.3152753  45.3936493
  56.2916993  29.7652753  45.8806493  51.7636993  29.2422753  36.3866493
  52.5196993  28.8102753  36.4446493  51.7786993  29.7742753  37.0776493
  51.8776993  29.2572753  36.4976493  52.7036993  27.4632753  44.3916493
  53.1346993  27.3342753  43.6446493  52.4986993  28.3112753  44.3656493
  52.7366993  27.5692753  44.2776493  59.0496993  21.0272753  38.0416493
  59.0476993  20.9102753  37.1766493  58.8686993  21.8752753  38.1336493
  59.0226993  21.1352753  37.9276493  56.7876993  30.9792753  42.6736493
  56.9136993  31.8222753  42.8606493  57.4556993  30.5802753  43.0696493
  56.9056993  31.0452753  42.7596493  54.9176993  24.4622753  52.5356493
  54.3816993  23.9562753  53.0036493  54.9376993  24.0722753  51.7556493
  54.8406993  24.3292753  52.4896493  55.4026993  23.8592753  37.6756493
  55.2746993  23.4112753  38.4136493  54.8206993  23.5172753  37.1236493
  55.2976993  23.7422753  37.7036493  55.5696993  25.6892753  44.2746493
  54.7886993  25.6302753  43.8916493  55.6416993  24.9372753  44.7116493
  55.4646993  25.5702753  44.2826493  55.9996993  25.4262753  47.7426493
  56.0246993  24.7512753  47.1916493  55.3536993  25.9222753  47.4306493
  55.9086993  25.3992753  47.6156493  60.0996993  34.2032753  47.1346493
  59.8226993  33.5622753  46.6116493  59.8916993  34.9292753  46.6966493
  60.0286993  34.2162753  46.9926493  62.5396993  19.0452753  49.5676493
  62.6886993  18.2202753  49.3246493  62.9186993  19.1002753  50.3516493
  62.6176993  18.9312753  49.6476493  53.7986993  26.7812753  53.3016493
  53.7616993  27.2822753  52.5876493  54.1296993  26.0292753  53.0066493
  53.8416993  26.7432753  53.1526493  59.6976993  31.8312753  52.7366493
  60.0516993  31.6532753  53.5136493  59.2616993  31.1022753  52.5376493
  59.6856993  31.6972753  52.8226493  60.6696993  22.5782753  45.3746493
  61.1496993  23.2772753  45.5826493  61.0426993  21.9312753  45.8256493
  60.7956993  22.5862753  45.4716493  62.8586993  25.7472753  37.6486493
  62.8506993  26.4692753  37.1586493  62.2196993  25.8822753  38.2256493
  62.7636993  25.8742753  37.6616493  57.7806993  34.3462753  39.3216493
  57.6336993  33.5702753  39.6926493  58.4696993  34.1992753  38.8066493
  57.8606993  34.2092753  39.3006493  57.4516993  18.0892753  37.3096493
  57.5486993  17.9822753  38.1706493  56.7436993  18.5952753  37.2446493
  57.3616993  18.1482753  37.4276493  60.0726993  33.8622753  37.7236493
  60.6946993  34.0252753  38.3136493  60.1086993  34.5532753  37.1916493
  60.1696993  33.9882753  37.7326493  54.5736993  26.3962753  38.5526493
  54.8976993  25.6172753  38.3306493  55.2196993  26.7642753  39.0076493
  54.7166993  26.3352753  38.5866493  51.5706993  18.0572753  39.5206493
  51.6996993  17.3492753  39.0286493  51.2036993  17.7392753  40.2456493
  51.5356993  17.9052753  39.5556493  61.2636993  25.7382753  39.9776493
  61.3226993  26.3882753  40.5566493  61.0746993  25.0422753  40.4686493
  61.2446993  25.7312753  40.1356493  55.7596993  20.2552753  36.4896493
  55.2486993  20.3082753  35.7836493  56.5436993  20.4952753  36.1936493
  55.7996993  20.2982753  36.3416493  60.4866993  27.7852753  44.4086493
  59.6396993  27.5912753  44.4896493  60.8106993  27.6202753  45.2016493
  60.4086993  27.7322753  44.5376493  57.2386993  34.5152753  35.2946493
  57.6776993  33.8182753  35.5826493  57.4456993  35.1392753  35.8676493
  57.3346993  34.5042753  35.4216493  54.3346993  27.4782753  46.7246493
  55.0566993  27.9662753  46.6876493  54.0646993  27.4482753  45.8956493
  54.4016993  27.5462753  46.5966493  57.5646993  22.6492753  43.4596493
  58.4106993  22.4592753  43.5576493  57.1946993  21.8722753  43.3216493
  57.6346993  22.5062753  43.4536493  52.3856993  23.9872753  40.1146493
  52.8746993  23.6952753  40.7756493  52.5146993  23.3942753  39.4876493
  52.4766993  23.8562753  40.1196493  56.9106993  25.4212753  35.6006493
  56.3006993  25.0162753  36.0746493  56.5246993  25.5392753  34.8276493
  56.7636993  25.3782753  35.5566493  53.7296993  28.5302753  51.0026493
  53.3086993  28.0122753  50.4416493  53.3776993  29.3162753  50.8596493
  53.6156993  28.5702753  50.8986493  58.3656993  23.8822753  38.3106493
  58.6376993  24.7082753  38.3776493  57.5026993  23.9572753  38.2146493
  58.2786993  24.0152753  38.3056493  51.8456993  19.8522753  44.8466493
  51.8896993  20.1962753  44.0456493  52.6006993  20.0892753  45.2136493
  51.9636993  19.9382753  44.7826493  58.4686993  30.3412753  47.6206493
  58.1706993  30.9332753  48.1876493  58.5236993  30.7832753  46.8716493
  58.4326993  30.4942753  47.5936493  56.4476993  29.2912753  51.0186493
  55.6416993  29.0012753  51.1856493  56.3586993  30.1592753  51.0246493
  56.3156993  29.3762753  51.0436493  60.9846993  26.7642753  47.1116493
  61.4606993  27.1382753  47.7396493  60.1616993  26.8982753  47.3706493
  60.9336993  26.8392753  47.2426493  57.6946993  22.3672753  49.8526493
  57.8556993  21.6232753  50.2796493  57.6496993  22.1182753  49.0176493
  57.7116993  22.2202753  49.7926493  60.2486993  34.1572753  42.3396493
  60.7946993  34.8362753  42.3936493  59.8986993  34.2392753  41.5446493
  60.2776993  34.2702753  42.2296493  59.4466993  18.1752753  49.7326493
  60.1516993  18.4952753  49.3306493  59.6876993  17.3682753  49.9596493
  59.5856993  18.1032753  49.7066493  58.4316993  32.3852753  45.7286493
  57.8076993  32.9672753  45.5466493  58.6796993  32.0992753  44.9426493
  58.3756993  32.4292753  45.5856493  60.0256993  27.1612753  35.6436493
  59.2206993  26.9842753  35.3586493  59.9926993  28.0122753  35.8356493
  59.9016993  27.2602753  35.6306493  55.9556993  23.2282753  45.7936493
  56.3956993  23.1252753  45.0476493  56.5006993  22.9152753  46.3986493
  56.1006993  23.1672753  45.7726493  61.0846993  34.0342753  51.6086493
  61.5626993  33.4342753  51.1926493  60.7336993  33.5912753  52.2736493
  61.1036993  33.8802753  51.6456493  59.5026993  18.2132753  45.8406493
  58.6766993  18.0642753  46.0776493  59.4626993  18.2482753  44.9696493
  59.3746993  18.1962753  45.7466493  61.1436993  29.2532753  50.6286493
  60.3486993  29.1892753  50.9796493  61.2146993  30.1002753  50.4336493
  61.0366993  29.3682753  50.6516493  52.0676993  18.6112753  51.8756493
  51.9276993  19.4062753  51.5446493  51.2816993  18.3682753  52.1646493
  51.9306993  18.6932753  51.8696493  56.9736993  35.4602753  45.9456493
  56.9846993  35.5192753  46.8156493  56.5486993  34.7132753  45.7956493
  56.9126993  35.3582753  46.0516493  55.1316993  21.3552753  39.1006493
  55.2576993  21.0262753  38.3026493  54.3196993  21.1062753  39.2996493
  55.0306993  21.2702753  39.0126493  61.4106993  27.7822753  41.7096493
  61.1126993  27.4672753  42.4666493  62.1056993  28.2552753  41.9446493
  61.4696993  27.8052753  41.8566493  61.6326993  31.9002753  49.7366493
  62.3196993  31.7862753  50.2616493  61.7666993  32.6912753  49.3926493
  61.7536993  32.0002753  49.7636493  53.7376993  34.9582753  51.3876493
  53.0836993  34.3892753  51.4856493  53.3626993  35.7312753  51.5386493
  53.5856993  34.9882753  51.4246493  62.2556993  26.3642753  53.3106493
  62.5786993  27.0502753  52.8786493  61.5516993  26.6872753  53.7126493
  62.1986993  26.5132753  53.3056493  62.0406993  29.8282753  47.1696493
  61.3466993  30.2302753  47.5126493  62.7176993  30.2612753  47.5086493
  62.0376993  29.9512753  47.2706493  55.1086993  23.3662753  49.5166493
  55.4836993  23.9852753  49.0296493  55.7826993  22.8922753  49.8016493
  55.2636993  23.3882753  49.4866493  52.8836993  21.8142753  48.7916493
  52.9606993  21.6452753  47.9386493  53.6296993  22.2202753  48.9886493
  53.0046993  21.8492753  48.6946493  55.4376993  19.2242753  51.2026493
  55.3566993  18.3802753  51.4086493  55.1236993  19.2682753  50.3896493
  55.3796993  19.1062753  51.1126493  62.3626993  31.4192753  40.3386493
  62.1576993  32.2522753  40.1796493  61.5876993  31.0372753  40.4606493
  62.2176993  31.4862753  40.3336493  52.2806993  27.0402753  49.0156493
  52.6006993  27.2592753  48.2346493  52.1806993  26.1752753  48.9606493
  52.3126993  26.9452753  48.8926493  53.7366993  22.9762753  35.6336493
  53.0646993  22.9902753  36.1896493  53.8316993  22.1282753  35.4496493
  53.6516993  22.8532753  35.6886493  62.4176993  19.5902753  43.2236493
  61.7176993  20.1082753  43.1676493  62.4556993  19.2102753  42.4396493
  62.3196993  19.6112753  43.0996493  57.7246993  31.6812753  36.7476493
  58.1656993  31.7612753  37.4956493  56.9196993  31.4652753  37.0056493
  57.6706993  31.6612753  36.8966493  57.0436993  26.3322753  50.4006493
  56.6476993  27.1062753  50.4756493  56.6376993  25.9592753  49.7246493
  56.9256993  26.3912753  50.3116493  55.0536993  30.7512753  37.3486493
  54.8096993  30.4442753  38.1286493  55.0206993  30.0482753  36.8326493
  55.0126993  30.6022753  37.3876493  57.8726993  28.9962753  36.0916493
  57.0546993  28.7282753  36.2316493  57.8446993  29.8482753  36.2766493
  57.7476993  29.0832753  36.1396493  57.4726993  19.3092753  47.8506493
  56.6086993  19.3932753  47.9306493  57.6926993  18.7952753  48.5196493
  57.3776993  19.2462753  47.9616493  61.5756993  20.0572753  46.2246493
  60.8386993  19.6032753  46.3376493  62.1466993  19.6552753  46.7476493
  61.5506993  19.9302753  46.3186493  59.0786993  24.3862753  51.4286493
  58.7566993  23.8102753  50.8586493  58.7196993  25.1412753  51.1826493
  58.9786993  24.4122753  51.3086493  59.8746993  17.6382753  36.0556493
  59.9526993  17.8852753  35.2226493  59.1316993  18.0152753  36.3136493
  59.7766993  17.7302753  35.9706493  57.5136993  34.7422753  51.6766493
  57.5546993  34.8682753  52.5396493  58.1646993  34.1822753  51.5206493
  57.6156993  34.6782753  51.7816493  54.6926993  19.3922753  48.4986493
  54.3496993  18.6252753  48.2646493  53.9976993  19.9162753  48.5626493
  54.5396993  19.3562753  48.4736493  55.1066993  33.1252753  53.0366493
  55.7016993  33.5562753  53.5086493  54.7426993  33.7492753  52.5476493
  55.1406993  33.2812753  53.0336493  53.3456993  22.7062753  42.4546493
  52.9776993  23.0082753  43.1856493  53.8796993  22.0772753  42.7386493
  53.3696993  22.6582753  42.6046493  53.0336993  31.1142753  49.9656493
  52.4596993  31.5302753  50.4746493  53.7666993  31.5792753  50.0606493
  53.0576993  31.2442753  50.0546493  54.8196993  34.3812753  38.7406493
  54.6746993  34.5372753  37.8946493  55.6856993  34.4602753  38.8186493
  54.9266993  34.4162753  38.6276493  58.9866993  26.7782753  38.4686493
  59.0866993  26.9172753  37.6136493  59.8046993  26.7182753  38.7646493
  59.1216993  26.7892753  38.3856493  58.1256993  19.7532753  51.5846493
  58.3596993  19.1772753  50.9716493  57.2836993  19.5722753  51.7256493
  58.0356993  19.6412753  51.5146493  55.5066993  33.1962753  45.2176493
  55.4276993  32.3862753  44.9016493  55.0626993  33.6832753  44.6456493
  55.4296993  33.1482753  45.0866493  61.1076993  29.3152753  37.7006493
  61.8246993  28.9682753  37.3446493  61.0736993  30.1152753  37.3526493
  61.2086993  29.3822753  37.5966493  53.0786993  35.4402753  48.7986493
  53.5716993  35.3842753  49.5166493  53.2666993  34.7072753  48.3636493
  53.1796993  35.3232753  48.8406493  62.3256993  24.8722753  26.6104083
  61.8016993  25.4682753  26.9734083  62.7226993  24.5042753  27.2944083
  62.3066993  24.9062753  26.7654083  52.1946993  29.0122753  22.0664083
  51.7536993  29.1302753  22.8094083  51.9116993  28.2372753  21.7814083
  52.0876993  28.9152753  22.1344083  51.9376993  22.8042753  18.5734083
  51.1596993  22.9662753  18.2134083  51.9766993  21.9332753  18.5954083
  51.8286993  22.6992753  18.5234083  55.0766993  28.0672753  17.2454083
  54.6846993  27.6962753  16.5594083  54.9966993  27.4692753  17.8744083
  55.0066993  27.9242753  17.2364083  54.7036993  29.7082753  21.1454083
  55.3116993  29.5382753  21.7484083  53.9526993  29.5682753  21.5664083
  54.6826993  29.6622753  21.2964083  58.9856993  19.0432753  21.0944083
  58.9156993  19.7202753  20.5484083  59.7266993  18.6552753  20.8454083
  59.0846993  19.0862753  20.9764083  53.5946993  32.7992753  17.2224083
  54.0616993  32.8832753  16.4904083  54.0496993  32.2212753  17.6914083
  53.7306993  32.7262753  17.1834083  52.1346993  31.7472753  28.3214083
  52.2636993  31.4672753  29.1374083  51.5246993  31.2062753  28.0124083
  52.0636993  31.6262753  28.3964083  58.7086993  29.2722753  33.3884083
  58.4726993  29.2692753  34.2284083  57.9606993  29.1242753  32.9644083
  58.5626993  29.2492753  33.4494083  53.5806993  26.2682753  22.5234083
  53.1186993  25.8762753  21.8964083  54.2806993  25.7552753  22.6154083
  53.6156993  26.1352753  22.4444083  58.0886993  21.8782753  27.8704083
  58.7666993  21.8962753  27.3214083  58.0436993  21.0422753  28.1154083
  58.1816993  21.7572753  27.8254083  58.6906993  32.4642753  30.6514083
  58.8286993  33.2242753  30.2444083  59.4816993  32.0992753  30.6784083
  58.8276993  32.5232753  30.5954083  55.5816993  24.3682753  22.5464083
  56.3986993  24.1812753  22.7894083  55.1046993  23.7542753  22.9424083
  55.6316993  24.2502753  22.6414083  59.7856993  30.3492753  25.1564083
  60.1336993  29.5502753  25.1864083  60.4506993  30.8532753  24.9014083
  59.9356993  30.3052753  25.1234083  59.8426993  29.7982753  21.3674083
  60.1736993  29.1542753  21.8534083  60.0826993  29.5872753  20.5564083
  59.9266993  29.6722753  21.3194083  61.8106993  23.9292753  32.7064083
  60.9626993  23.8302753  32.5284083  61.8396993  24.6742753  33.1604083
  61.6896993  24.0252753  32.7474083  56.1786993  19.4622753  21.8124083
  55.8826993  19.9632753  21.1624083  57.0456993  19.5402753  21.7554083
  56.2626993  19.5482753  21.7084083  59.1576993  18.6042753  24.0354083
  59.2306993  19.4642753  24.1644083  59.1196993  18.5292753  23.1674083
  59.1626993  18.7202753  23.9264083  52.0366993  24.0292753  25.5364083
  51.7806993  24.8602753  25.4614083  51.3726993  23.6462753  25.9534083
  51.9006993  24.0952753  25.5874083  51.9466993  33.7392753  23.4364083
  51.3546993  34.2972753  23.1234083  52.3726993  33.4702753  22.7244083
  51.9226993  33.7812753  23.2854083  57.7866993  31.5832753  20.9164083
  57.2076993  31.3082753  21.5084083  58.4106993  30.9742753  20.9414083
  57.7936993  31.4532753  21.0074083  62.0976993  34.2632753  20.4284083
  62.3116993  34.7902753  21.0904083  62.8646993  34.0892753  20.0494083
  62.2426993  34.3152753  20.4704083  55.0656993  18.8462753  26.0274083
  54.5446993  18.2182753  25.7194083  55.6566993  18.4092753  26.4984083
  55.0766993  18.6882753  26.0514083  58.3716993  20.9792753  35.3254083
  58.4886993  20.5252753  34.5894083  58.6596993  21.7772753  35.1224083
  58.4316993  21.0302753  35.1864083  53.4916993  32.4092753  21.3674083
  54.1476993  31.8342753  21.3824083  53.8806993  33.1582753  21.1464083
  53.6466993  32.4342753  21.3374083  54.1046993  20.5762753  34.3094083
  53.3266993  20.1862753  34.2374083  54.5956993  20.1642753  33.7184083
  54.0616993  20.4572753  34.2114083  54.3096993  30.8962753  24.8674083
  54.7326993  30.5402753  24.1934083  54.6336993  30.4742753  25.5594083
  54.4196993  30.7812753  24.8704083  57.5406993  33.7482753  24.1634083
  58.3846993  33.8522753  23.9684083  57.2436993  34.5662753  24.2314083
  57.6216993  33.8842753  24.1444083  60.7536993  18.2192753  33.4774083
  60.9316993  17.4102753  33.2024083  60.6106993  18.6602753  32.7384083
  60.7586993  18.1652753  33.3274083  61.3476993  23.1452753  22.2504083
  61.6346993  22.9132753  21.4604083  62.0796993  23.2242753  22.7194083
  61.4976993  23.1222753  22.2034083  62.0696993  23.4842753  17.3714083
  62.3506993  24.2722753  17.6204083  61.2936993  23.6492753  17.0084083
  61.9966993  23.6252753  17.3544083  56.5386993  34.9672753  29.9034083
  56.8306993  34.9002753  30.7234083  55.9126993  34.3622753  29.8584083
  56.4896993  34.8682753  30.0184083  51.4526993  21.1242753  31.8954083
  51.4486993  21.7112753  32.5414083  52.0466993  21.4362753  31.3384083
  51.5396993  21.2572753  31.9084083  60.9286993  31.6552753  17.1874083
  60.7476993  32.2002753  17.8444083  61.6946993  31.9452753  16.8864083
  61.0146993  31.7792753  17.2404083  52.3896993  20.7192753  20.8104083
  52.2756993  19.8552753  20.8414083  51.9146993  21.0132753  21.4804083
  52.3026993  20.6352753  20.9134083  54.5316993  33.1292753  29.0254083
  53.8336993  32.6212753  29.1514083  54.7916993  32.9242753  28.2174083
  54.4666993  33.0242753  28.9244083  61.6936993  21.9272753  19.5554083
  61.1856993  21.2652753  19.3014083  61.7456993  22.4312753  18.8454083
  61.6266993  21.9042753  19.4134083  62.2426993  34.6222753  29.9354083
  63.0106993  34.5422753  29.5294083  61.6596993  34.5012753  29.2974083
  62.2696993  34.5922753  29.7814083  61.6936993  18.8682753  19.4464083
  61.2386993  18.4662753  18.8204083  62.4666993  19.0232753  19.0714083
  61.7406993  18.8322753  19.2984083  60.2916993  21.2352753  23.9684083
  60.3656993  21.8032753  23.3104083  60.4126993  21.7272753  24.6784083
  60.3196993  21.3922753  23.9764083  55.8926993  31.9802753  31.5924083
  56.7336993  32.0432753  31.3704083  55.8556993  32.3772753  32.3684083
  56.0116993  32.0482753  31.6744083  54.8996993  17.0582753  22.3164083
  55.4356993  17.7462753  22.3064083  54.9026993  16.7842753  21.4884083
  54.9786993  17.1192753  22.1924083  57.8556993  27.4912753  26.3414083
  58.0276993  27.2812753  27.1704083  57.2006993  26.9572753  26.1254083
  57.7846993  27.3812753  26.4324083  58.6056993  27.4292753  28.9314083
  58.6586993  28.2762753  29.1334083  58.3206993  27.0592753  29.6684083
  58.5716993  27.4992753  29.0694083  51.4266993  31.8002753  35.1424083
  52.1826993  32.1492753  35.4004083  51.6036993  30.9472753  35.0854083
  51.5646993  31.7252753  35.1724083  55.3476993  20.8682753  23.9704083
  55.6196993  20.4382753  23.2624083  55.1716993  20.2322753  24.5414083
  55.3616993  20.7112753  23.9504083  55.1716993  28.2952753  23.5194083
  56.0226993  28.2152753  23.3464083  54.8146993  27.6132753  23.1074083
  55.2446993  28.1822753  23.4324083  53.9386993  35.0202753  24.7564083
  53.2656993  34.5222753  24.5114083  54.3416993  35.2052753  24.0054083
  53.8986993  34.9742753  24.6094083  53.4886993  21.9702753  27.0524083
  54.3316993  22.1902753  27.0094083  53.0996993  22.5432753  26.5214083
  53.5556993  22.0872753  26.9674083  57.5396993  28.3022753  21.7544083
  58.2526993  28.7972753  21.8444083  57.7616993  27.7352753  21.1284083
  57.6776993  28.2912753  21.6754083  51.6956993  29.9452753  25.0744083
  51.0286993  30.4332753  25.3504083  52.3756993  30.4902753  25.1034083
  51.6976993  30.0972753  25.1194083  59.3426993  23.6552753  35.1704083
  58.8586993  24.2322753  35.6124083  59.3146993  23.9502753  34.3494083
  59.2666993  23.7842753  35.1144083  51.7616993  26.6292753  20.1774083
  51.5766993  25.7902753  20.3294083  52.4206993  26.5932753  19.6074083
  51.8316993  26.5002753  20.1154083  62.0626993  32.0052753  24.0814083
  61.5396993  32.6392753  23.7884083  62.3726993  31.6412753  23.3524083
  62.0306993  32.0452753  23.9304083  51.9336993  30.7932753  19.7524083
  52.4856993  31.3622753  20.1164083  51.7016993  30.2782753  20.4174083
  51.9806993  30.8012753  19.9044083  56.1376993  29.7932753  26.8414083
  56.6046993  30.0822753  27.5194083  56.7096993  29.3152753  26.3874083
  56.2916993  29.7652753  26.8744083  51.7636993  29.2422753  17.3804083
  52.5196993  28.8102753  17.4384083  51.7786993  29.7742753  18.0714083
  51.8776993  29.2572753  17.4914083  52.7036993  27.4632753  25.3854083
  53.1346993  27.3342753  24.6384083  52.4986993  28.3112753  25.3594083
  52.7366993  27.5692753  25.2714083  59.0496993  21.0272753  19.0354083
  59.0476993  20.9102753  18.1704083  58.8686993  21.8752753  19.1274083
  59.0226993  21.1352753  18.9214083  56.7876993  30.9792753  23.6674083
  56.9136993  31.8222753  23.8544083  57.4556993  30.5802753  24.0634083
  56.9056993  31.0452753  23.7534083  54.9176993  24.4622753  33.5294083
  54.3816993  23.9562753  33.9974083  54.9376993  24.0722753  32.7494083
  54.8406993  24.3292753  33.4834083  55.4026993  23.8592753  18.6694083
  55.2746993  23.4112753  19.4074083  54.8206993  23.5172753  18.1174083
  55.2976993  23.7422753  18.6974083  55.5696993  25.6892753  25.2684083
  54.7886993  25.6302753  24.8854083  55.6416993  24.9372753  25.7054083
  55.4646993  25.5702753  25.2764083  55.9996993  25.4262753  28.7364083
  56.0246993  24.7512753  28.1854083  55.3536993  25.9222753  28.4244083
  55.9086993  25.3992753  28.6094083  60.0996993  34.2032753  28.1284083
  59.8226993  33.5622753  27.6054083  59.8916993  34.9292753  27.6904083
  60.0286993  34.2162753  27.9864083  62.5396993  19.0452753  30.5614083
  62.6886993  18.2202753  30.3184083  62.9186993  19.1002753  31.3454083
  62.6176993  18.9312753  30.6414083  53.7986993  26.7812753  34.2954083
  53.7616993  27.2822753  33.5814083  54.1296993  26.0292753  34.0004083
  53.8416993  26.7432753  34.1464083  59.6976993  31.8312753  33.7304083
  60.0516993  31.6532753  34.5074083  59.2616993  31.1022753  33.5314083
  59.6856993  31.6972753  33.8164083  60.6696993  22.5782753  26.3684083
  61.1496993  23.2772753  26.5764083  61.0426993  21.9312753  26.8194083
  60.7956993  22.5862753  26.4654083  62.8586993  25.7472753  18.6424083
  62.8506993  26.4692753  18.1524083  62.2196993  25.8822753  19.2194083
  62.7636993  25.8742753  18.6554083  57.7806993  34.3462753  20.3154083
  57.6336993  33.5702753  20.6864083  58.4696993  34.1992753  19.8004083
  57.8606993  34.2092753  20.2944083  57.4516993  18.0892753  18.3034083
  57.5486993  17.9822753  19.1644083  56.7436993  18.5952753  18.2384083
  57.3616993  18.1482753  18.4214083  60.0726993  33.8622753  18.7174083
  60.6946993  34.0252753  19.3074083  60.1086993  34.5532753  18.1854083
  60.1696993  33.9882753  18.7264083  54.5736993  26.3962753  19.5464083
  54.8976993  25.6172753  19.3244083  55.2196993  26.7642753  20.0014083
  54.7166993  26.3352753  19.5804083  51.5706993  18.0572753  20.5144083
  51.6996993  17.3492753  20.0224083  51.2036993  17.7392753  21.2394083
  51.5356993  17.9052753  20.5494083  61.2636993  25.7382753  20.9714083
  61.3226993  26.3882753  21.5504083  61.0746993  25.0422753  21.4624083
  61.2446993  25.7312753  21.1294083  55.7596993  20.2552753  17.4834083
  55.2486993  20.3082753  16.7774083  56.5436993  20.4952753  17.1874083
  55.7996993  20.2982753  17.3354083  60.4866993  27.7852753  25.4024083
  59.6396993  27.5912753  25.4834083  60.8106993  27.6202753  26.1954083
  60.4086993  27.7322753  25.5314083  57.2386993  34.5152753  16.2884083
  57.6776993  33.8182753  16.5764083  57.4456993  35.1392753  16.8614083
  57.3346993  34.5042753  16.4154083  54.3346993  27.4782753  27.7184083
  55.0566993  27.9662753  27.6814083  54.0646993  27.4482753  26.8894083
  54.4016993  27.5462753  27.5904083  57.5646993  22.6492753  24.4534083
  58.4106993  22.4592753  24.5514083  57.1946993  21.8722753  24.3154083
  57.6346993  22.5062753  24.4474083  52.3856993  23.9872753  21.1084083
  52.8746993  23.6952753  21.7694083  52.5146993  23.3942753  20.4814083
  52.4766993  23.8562753  21.1134083  56.9106993  25.4212753  16.5944083
  56.3006993  25.0162753  17.0684083  56.5246993  25.5392753  15.8214083
  56.7636993  25.3782753  16.5504083  53.7296993  28.5302753  31.9964083
  53.3086993  28.0122753  31.4354083  53.3776993  29.3162753  31.8534083
  53.6156993  28.5702753  31.8924083  58.3656993  23.8822753  19.3044083
  58.6376993  24.7082753  19.3714083  57.5026993  23.9572753  19.2084083
  58.2786993  24.0152753  19.2994083  51.8456993  19.8522753  25.8404083
  51.8896993  20.1962753  25.0394083  52.6006993  20.0892753  26.2074083
  51.9636993  19.9382753  25.7764083  58.4686993  30.3412753  28.6144083
  58.1706993  30.9332753  29.1814083  58.5236993  30.7832753  27.8654083
  58.4326993  30.4942753  28.5874083  56.4476993  29.2912753  32.0124083
  55.6416993  29.0012753  32.1794083  56.3586993  30.1592753  32.0184083
  56.3156993  29.3762753  32.0374083  60.9846993  26.7642753  28.1054083
  61.4606993  27.1382753  28.7334083  60.1616993  26.8982753  28.3644083
  60.9336993  26.8392753  28.2364083  57.6946993  22.3672753  30.8464083
  57.8556993  21.6232753  31.2734083  57.6496993  22.1182753  30.0114083
  57.7116993  22.2202753  30.7864083  60.2486993  34.1572753  23.3334083
  60.7946993  34.8362753  23.3874083  59.8986993  34.2392753  22.5384083
  60.2776993  34.2702753  23.2234083  59.4466993  18.1752753  30.7264083
  60.1516993  18.4952753  30.3244083  59.6876993  17.3682753  30.9534083
  59.5856993  18.1032753  30.7004083  58.4316993  32.3852753  26.7224083
  57.8076993  32.9672753  26.5404083  58.6796993  32.0992753  25.9364083
  58.3756993  32.4292753  26.5794083  60.0256993  27.1612753  16.6374083
  59.2206993  26.9842753  16.3524083  59.9926993  28.0122753  16.8294083
  59.9016993  27.2602753  16.6244083  55.9556993  23.2282753  26.7874083
  56.3956993  23.1252753  26.0414083  56.5006993  22.9152753  27.3924083
  56.1006993  23.1672753  26.7664083  61.0846993  34.0342753  32.6024083
  61.5626993  33.4342753  32.1864083  60.7336993  33.5912753  33.2674083
  61.1036993  33.8802753  32.6394083  59.5026993  18.2132753  26.8344083
  58.6766993  18.0642753  27.0714083  59.4626993  18.2482753  25.9634083
  59.3746993  18.1962753  26.7404083  61.1436993  29.2532753  31.6224083
  60.3486993  29.1892753  31.9734083  61.2146993  30.1002753  31.4274083
  61.0366993  29.3682753  31.6454083  52.0676993  18.6112753  32.8694083
  51.9276993  19.4062753  32.5384083  51.2816993  18.3682753  33.1584083
  51.9306993  18.6932753  32.8634083  56.9736993  35.4602753  26.9394083
  56.9846993  35.5192753  27.8094083  56.5486993  34.7132753  26.7894083
  56.9126993  35.3582753  27.0454083  55.1316993  21.3552753  20.0944083
  55.2576993  21.0262753  19.2964083  54.3196993  21.1062753  20.2934083
  55.0306993  21.2702753  20.0064083  61.4106993  27.7822753  22.7034083
  61.1126993  27.4672753  23.4604083  62.1056993  28.2552753  22.9384083
  61.4696993  27.8052753  22.8504083  61.6326993  31.9002753  30.7304083
  62.3196993  31.7862753  31.2554083  61.7666993  32.6912753  30.3864083
  61.7536993  32.0002753  30.7574083  53.7376993  34.9582753  32.3814083
  53.0836993  34.3892753  32.4794083  53.3626993  35.7312753  32.5324083
  53.5856993  34.9882753  32.4184083  62.2556993  26.3642753  34.3044083
  62.5786993  27.0502753  33.8724083  61.5516993  26.6872753  34.7064083
  62.1986993  26.5132753  34.2994083  62.0406993  29.8282753  28.1634083
  61.3466993  30.2302753  28.5064083  62.7176993  30.2612753  28.5024083
  62.0376993  29.9512753  28.2644083  55.1086993  23.3662753  30.5104083
  55.4836993  23.9852753  30.0234083  55.7826993  22.8922753  30.7954083
  55.2636993  23.3882753  30.4804083  52.8836993  21.8142753  29.7854083
  52.9606993  21.6452753  28.9324083  53.6296993  22.2202753  29.9824083
  53.0046993  21.8492753  29.6884083  55.4376993  19.2242753  32.1964083
  55.3566993  18.3802753  32.4024083  55.1236993  19.2682753  31.3834083
  55.3796993  19.1062753  32.1064083  62.3626993  31.4192753  21.3324083
  62.1576993  32.2522753  21.1734083  61.5876993  31.0372753  21.4544083
  62.2176993  31.4862753  21.3274083  52.2806993  27.0402753  30.0094083
  52.6006993  27.2592753  29.2284083  52.1806993  26.1752753  29.9544083
  52.3126993  26.9452753  29.8864083  53.7366993  22.9762753  16.6274083
  53.0646993  22.9902753  17.1834083  53.8316993  22.1282753  16.4434083
  53.6516993  22.8532753  16.6824083  62.4176993  19.5902753  24.2174083
  61.7176993  20.1082753  24.1614083  62.4556993  19.2102753  23.4334083
  62.3196993  19.6112753  24.0934083  57.7246993  31.6812753  17.7414083
  58.1656993  31.7612753  18.4894083  56.9196993  31.4652753  17.9994083
  57.6706993  31.6612753  17.8904083  57.0436993  26.3322753  31.3944083
  56.6476993  27.1062753  31.4694083  56.6376993  25.9592753  30.7184083
  56.9256993  26.3912753  31.3054083  55.0536993  30.7512753  18.3424083
  54.8096993  30.4442753  19.1224083  55.0206993  30.0482753  17.8264083
  55.0126993  30.6022753  18.3814083  57.8726993  28.9962753  17.0854083
  57.0546993  28.7282753  17.2254083  57.8446993  29.8482753  17.2704083
  57.7476993  29.0832753  17.1334083  57.4726993  19.3092753  28.8444083
  56.6086993  19.3932753  28.9244083  57.6926993  18.7952753  29.5134083
  57.3776993  19.2462753  28.9554083  61.5756993  20.0572753  27.2184083
  60.8386993  19.6032753  27.3314083  62.1466993  19.6552753  27.7414083
  61.5506993  19.9302753  27.3124083  59.0786993  24.3862753  32.4224083
  58.7566993  23.8102753  31.8524083  58.7196993  25.1412753  32.1764083
  58.9786993  24.4122753  32.3024083  59.8746993  17.6382753  17.0494083
  59.9526993  17.8852753  16.2164083  59.1316993  18.0152753  17.3074083
  59.7766993  17.7302753  16.9644083  57.5136993  34.7422753  32.6704083
  57.5546993  34.8682753  33.5334083  58.1646993  34.1822753  32.5144083
  57.6156993  34.6782753  32.7754083  54.6926993  19.3922753  29.4924083
  54.3496993  18.6252753  29.2584083  53.9976993  19.9162753  29.5564083
  54.5396993  19.3562753  29.4674083  55.1066993  33.1252753  34.0304083
  55.7016993  33.5562753  34.5024083  54.7426993  33.7492753  33.5414083
  55.1406993  33.2812753  34.0274083  53.3456993  22.7062753  23.4484083
  52.9776993  23.0082753  24.1794083  53.8796993  22.0772753  23.7324083
  53.3696993  22.6582753  23.5984083  53.0336993  31.1142753  30.9594083
  52.4596993  31.5302753  31.4684083  53.7666993  31.5792753  31.0544083
  53.0576993  31.2442753  31.0484083  54.8196993  34.3812753  19.7344083
  54.6746993  34.5372753  18.8884083  55.6856993  34.4602753  19.8124083
  54.9266993  34.4162753  19.6214083  58.9866993  26.7782753  19.4624083
  59.0866993  26.9172753  18.6074083  59.8046993  26.7182753  19.7584083
  59.1216993  26.7892753  19.3794083  58.1256993  19.7532753  32.5784083
  58.3596993  19.1772753  31.9654083  57.2836993  19.5722753  32.7194083
  58.0356993  19.6412753  32.5084083  55.5066993  33.1962753  26.2114083
  55.4276993  32.3862753  25.8954083  55.0626993  33.6832753  25.6394083
  55.4296993  33.1482753  26.0804083  61.1076993  29.3152753  18.6944083
  61.8246993  28.9682753  18.3384083  61.0736993  30.1152753  18.3464083
  61.2086993  29.3822753  18.5904083  53.0786993  35.4402753  29.7924083
  53.5716993  35.3842753  30.5104083  53.2666993  34.7072753  29.3574083
  53.1796993  35.3232753  29.8344083  62.3256993  24.8722753   7.6041673
  61.8016993  25.4682753   7.9671673  62.7226993  24.5042753   8.2881673
  62.3066993  24.9062753   7.7591673  52.1946993  29.0122753   3.0601673
  51.7536993  29.1302753   3.8031673  51.9116993  28.2372753   2.7751673
  52.0876993  28.9152753   3.1281673  54.7036993  29.7082753   2.1391673
  55.3116993  29.5382753   2.7421673  53.9526993  29.5682753   2.5601673
  54.6826993  29.6622753   2.2901673  58.9856993  19.0432753   2.0881673
  58.9156993  19.7202753   1.5421673  59.7266993  18.6552753   1.8391673
  59.0846993  19.0862753   1.9701673  52.1346993  31.7472753   9.3151673
  52.2636993  31.4672753  10.1311673  51.5246993  31.2062753   9.0061673
  52.0636993  31.6262753   9.3901673  58.7086993  29.2722753  14.3821673
  58.4726993  29.2692753  15.2221673  57.9606993  29.1242753  13.9581673
  58.5626993  29.2492753  14.4431673  53.5806993  26.2682753   3.5171673
  53.1186993  25.8762753   2.8901673  54.2806993  25.7552753   3.6091673
  53.6156993  26.1352753   3.4381673  58.0886993  21.8782753   8.8641673
  58.7666993  21.8962753   8.3151673  58.0436993  21.0422753   9.1091673
  58.1816993  21.7572753   8.8191673  58.6906993  32.4642753  11.6451673
  58.8286993  33.2242753  11.2381673  59.4816993  32.0992753  11.6721673
  58.8276993  32.5232753  11.5891673  55.5816993  24.3682753   3.5401673
  56.3986993  24.1812753   3.7831673  55.1046993  23.7542753   3.9361673
  55.6316993  24.2502753   3.6351673  59.7856993  30.3492753   6.1501673
  60.1336993  29.5502753   6.1801673  60.4506993  30.8532753   5.8951673
  59.9356993  30.3052753   6.1171673  59.8426993  29.7982753   2.3611673
  60.1736993  29.1542753   2.8471673  60.0826993  29.5872753   1.5501673
  59.9266993  29.6722753   2.3131673  61.8106993  23.9292753  13.7001673
  60.9626993  23.8302753  13.5221673  61.8396993  24.6742753  14.1541673
  61.6896993  24.0252753  13.7411673  56.1786993  19.4622753   2.8061673
  55.8826993  19.9632753   2.1561673  57.0456993  19.5402753   2.7491673
  56.2626993  19.5482753   2.7021673  59.1576993  18.6042753   5.0291673
  59.2306993  19.4642753   5.1581673  59.1196993  18.5292753   4.1611673
  59.1626993  18.7202753   4.9201673  52.0366993  24.0292753   6.5301673
  51.7806993  24.8602753   6.4551673  51.3726993  23.6462753   6.9471673
  51.9006993  24.0952753   6.5811673  51.9466993  33.7392753   4.4301673
  51.3546993  34.2972753   4.1171673  52.3726993  33.4702753   3.7181673
  51.9226993  33.7812753   4.2791673  57.7866993  31.5832753   1.9101673
  57.2076993  31.3082753   2.5021673  58.4106993  30.9742753   1.9351673
  57.7936993  31.4532753   2.0011673  55.0656993  18.8462753   7.0211673
  54.5446993  18.2182753   6.7131673  55.6566993  18.4092753   7.4921673
  55.0766993  18.6882753   7.0451673  58.3716993  20.9792753  16.3191673
  58.4886993  20.5252753  15.5831673  58.6596993  21.7772753  16.1161673
  58.4316993  21.0302753  16.1801673  53.4916993  32.4092753   2.3611673
  54.1476993  31.8342753   2.3761673  53.8806993  33.1582753   2.1401673
  53.6466993  32.4342753   2.3311673  54.1046993  20.5762753  15.3031673
  53.3266993  20.1862753  15.2311673  54.5956993  20.1642753  14.7121673
  54.0616993  20.4572753  15.2051673  54.3096993  30.8962753   5.8611673
  54.7326993  30.5402753   5.1871673  54.6336993  30.4742753   6.5531673
  54.4196993  30.7812753   5.8641673  57.5406993  33.7482753   5.1571673
  58.3846993  33.8522753   4.9621673  57.2436993  34.5662753   5.2251673
  57.6216993  33.8842753   5.1381673  60.7536993  18.2192753  14.4711673
  60.9316993  17.4102753  14.1961673  60.6106993  18.6602753  13.7321673
  60.7586993  18.1652753  14.3211673  61.3476993  23.1452753   3.2441673
  61.6346993  22.9132753   2.4541673  62.0796993  23.2242753   3.7131673
  61.4976993  23.1222753   3.1971673  56.5386993  34.9672753  10.8971673
  56.8306993  34.9002753  11.7171673  55.9126993  34.3622753  10.8521673
  56.4896993  34.8682753  11.0121673  51.4526993  21.1242753  12.8891673
  51.4486993  21.7112753  13.5351673  52.0466993  21.4362753  12.3321673
  51.5396993  21.2572753  12.9021673  52.3896993  20.7192753   1.8041673
  52.2756993  19.8552753   1.8351673  51.9146993  21.0132753   2.4741673
  52.3026993  20.6352753   1.9071673  54.5316993  33.1292753  10.0191673
  53.8336993  32.6212753  10.1451673  54.7916993  32.9242753   9.2111673
  54.4666993  33.0242753   9.9181673  62.2426993  34.6222753  10.9291673
  63.0106993  34.5422753  10.5231673  61.6596993  34.5012753  10.2911673
  62.2696993  34.5922753  10.7751673  60.2916993  21.2352753   4.9621673
  60.3656993  21.8032753   4.3041673  60.4126993  21.7272753   5.6721673
  60.3196993  21.3922753   4.9701673  55.8926993  31.9802753  12.5861673
  56.7336993  32.0432753  12.3641673  55.8556993  32.3772753  13.3621673
  56.0116993  32.0482753  12.6681673  54.8996993  17.0582753   3.3101673
  55.4356993  17.7462753   3.3001673  54.9026993  16.7842753   2.4821673
  54.9786993  17.1192753   3.1861673  57.8556993  27.4912753   7.3351673
  58.0276993  27.2812753   8.1641673  57.2006993  26.9572753   7.1191673
  57.7846993  27.3812753   7.4261673  58.6056993  27.4292753   9.9251673
  58.6586993  28.2762753  10.1271673  58.3206993  27.0592753  10.6621673
  58.5716993  27.4992753  10.0631673  51.4266993  31.8002753  16.1361673
  52.1826993  32.1492753  16.3941673  51.6036993  30.9472753  16.0791673
  51.5646993  31.7252753  16.1661673  55.3476993  20.8682753   4.9641673
  55.6196993  20.4382753   4.2561673  55.1716993  20.2322753   5.5351673
  55.3616993  20.7112753   4.9441673  55.1716993  28.2952753   4.5131673
  56.0226993  28.2152753   4.3401673  54.8146993  27.6132753   4.1011673
  55.2446993  28.1822753   4.4261673  53.9386993  35.0202753   5.7501673
  53.2656993  34.5222753   5.5051673  54.3416993  35.2052753   4.9991673
  53.8986993  34.9742753   5.6031673  53.4886993  21.9702753   8.0461673
  54.3316993  22.1902753   8.0031673  53.0996993  22.5432753   7.5151673
  53.5556993  22.0872753   7.9611673  57.5396993  28.3022753   2.7481673
  58.2526993  28.7972753   2.8381673  57.7616993  27.7352753   2.1221673
  57.6776993  28.2912753   2.6691673  51.6956993  29.9452753   6.0681673
  51.0286993  30.4332753   6.3441673  52.3756993  30.4902753   6.0971673
  51.6976993  30.0972753   6.1131673  59.3426993  23.6552753  16.1641673
  58.8586993  24.2322753  16.6061673  59.3146993  23.9502753  15.3431673
  59.2666993  23.7842753  16.1081673  62.0626993  32.0052753   5.0751673
  61.5396993  32.6392753   4.7821673  62.3726993  31.6412753   4.3461673
  62.0306993  32.0452753   4.9241673  56.1376993  29.7932753   7.8351673
  56.6046993  30.0822753   8.5131673  56.7096993  29.3152753   7.3811673
  56.2916993  29.7652753   7.8681673  52.7036993  27.4632753   6.3791673
  53.1346993  27.3342753   5.6321673  52.4986993  28.3112753   6.3531673
  52.7366993  27.5692753   6.2651673  56.7876993  30.9792753   4.6611673
  56.9136993  31.8222753   4.8481673  57.4556993  30.5802753   5.0571673
  56.9056993  31.0452753   4.7471673  54.9176993  24.4622753  14.5231673
  54.3816993  23.9562753  14.9911673  54.9376993  24.0722753  13.7431673
  54.8406993  24.3292753  14.4771673  55.5696993  25.6892753   6.2621673
  54.7886993  25.6302753   5.8791673  55.6416993  24.9372753   6.6991673
  55.4646993  25.5702753   6.2701673  55.9996993  25.4262753   9.7301673
  56.0246993  24.7512753   9.1791673  55.3536993  25.9222753   9.4181673
  55.9086993  25.3992753   9.6031673  60.0996993  34.2032753   9.1221673
  59.8226993  33.5622753   8.5991673  59.8916993  34.9292753   8.6841673
  60.0286993  34.2162753   8.9801673  62.5396993  19.0452753  11.5551673
  62.6886993  18.2202753  11.3121673  62.9186993  19.1002753  12.3391673
  62.6176993  18.9312753  11.6351673  53.7986993  26.7812753  15.2891673
  53.7616993  27.2822753  14.5751673  54.1296993  26.0292753  14.9941673
  53.8416993  26.7432753  15.1401673  59.6976993  31.8312753  14.7241673
  60.0516993  31.6532753  15.5011673  59.2616993  31.1022753  14.5251673
  59.6856993  31.6972753  14.8101673  60.6696993  22.5782753   7.3621673
  61.1496993  23.2772753   7.5701673  61.0426993  21.9312753   7.8131673
  60.7956993  22.5862753   7.4591673  61.2636993  25.7382753   1.9651673
  61.3226993  26.3882753   2.5441673  61.0746993  25.0422753   2.4561673
  61.2446993  25.7312753   2.1231673  60.4866993  27.7852753   6.3961673
  59.6396993  27.5912753   6.4771673  60.8106993  27.6202753   7.1891673
  60.4086993  27.7322753   6.5251673  54.3346993  27.4782753   8.7121673
  55.0566993  27.9662753   8.6751673  54.0646993  27.4482753   7.8831673
  54.4016993  27.5462753   8.5841673  57.5646993  22.6492753   5.4471673
  58.4106993  22.4592753   5.5451673  57.1946993  21.8722753   5.3091673
  57.6346993  22.5062753   5.4411673  53.7296993  28.5302753  12.9901673
  53.3086993  28.0122753  12.4291673  53.3776993  29.3162753  12.8471673
  53.6156993  28.5702753  12.8861673  51.8456993  19.8522753   6.8341673
  51.8896993  20.1962753   6.0331673  52.6006993  20.0892753   7.2011673
  51.9636993  19.9382753   6.7701673  58.4686993  30.3412753   9.6081673
  58.1706993  30.9332753  10.1751673  58.5236993  30.7832753   8.8591673
  58.4326993  30.4942753   9.5811673  56.4476993  29.2912753  13.0061673
  55.6416993  29.0012753  13.1731673  56.3586993  30.1592753  13.0121673
  56.3156993  29.3762753  13.0311673  60.9846993  26.7642753   9.0991673
  61.4606993  27.1382753   9.7271673  60.1616993  26.8982753   9.3581673
  60.9336993  26.8392753   9.2301673  57.6946993  22.3672753  11.8401673
  57.8556993  21.6232753  12.2671673  57.6496993  22.1182753  11.0051673
  57.7116993  22.2202753  11.7801673  60.2486993  34.1572753   4.3271673
  60.7946993  34.8362753   4.3811673  59.8986993  34.2392753   3.5321673
  60.2776993  34.2702753   4.2171673  59.4466993  18.1752753  11.7201673
  60.1516993  18.4952753  11.3181673  59.6876993  17.3682753  11.9471673
  59.5856993  18.1032753  11.6941673  58.4316993  32.3852753   7.7161673
  57.8076993  32.9672753   7.5341673  58.6796993  32.0992753   6.9301673
  58.3756993  32.4292753   7.5731673  55.9556993  23.2282753   7.7811673
  56.3956993  23.1252753   7.0351673  56.5006993  22.9152753   8.3861673
  56.1006993  23.1672753   7.7601673  61.0846993  34.0342753  13.5961673
  61.5626993  33.4342753  13.1801673  60.7336993  33.5912753  14.2611673
  61.1036993  33.8802753  13.6331673  59.5026993  18.2132753   7.8281673
  58.6766993  18.0642753   8.0651673  59.4626993  18.2482753   6.9571673
  59.3746993  18.1962753   7.7341673  61.1436993  29.2532753  12.6161673
  60.3486993  29.1892753  12.9671673  61.2146993  30.1002753  12.4211673
  61.0366993  29.3682753  12.6391673  52.0676993  18.6112753  13.8631673
  51.9276993  19.4062753  13.5321673  51.2816993  18.3682753  14.1521673
  51.9306993  18.6932753  13.8571673  56.9736993  35.4602753   7.9331673
  56.9846993  35.5192753   8.8031673  56.5486993  34.7132753   7.7831673
  56.9126993  35.3582753   8.0391673  61.4106993  27.7822753   3.6971673
  61.1126993  27.4672753   4.4541673  62.1056993  28.2552753   3.9321673
  61.4696993  27.8052753   3.8441673  61.6326993  31.9002753  11.7241673
  62.3196993  31.7862753  12.2491673  61.7666993  32.6912753  11.3801673
  61.7536993  32.0002753  11.7511673  53.7376993  34.9582753  13.3751673
  53.0836993  34.3892753  13.4731673  53.3626993  35.7312753  13.5261673
  53.5856993  34.9882753  13.4121673  62.2556993  26.3642753  15.2981673
  62.5786993  27.0502753  14.8661673  61.5516993  26.6872753  15.7001673
  62.1986993  26.5132753  15.2931673  62.0406993  29.8282753   9.1571673
  61.3466993  30.2302753   9.5001673  62.7176993  30.2612753   9.4961673
  62.0376993  29.9512753   9.2581673  55.1086993  23.3662753  11.5041673
  55.4836993  23.9852753  11.0171673  55.7826993  22.8922753  11.7891673
  55.2636993  23.3882753  11.4741673  52.8836993  21.8142753  10.7791673
  52.9606993  21.6452753   9.9261673  53.6296993  22.2202753  10.9761673
  53.0046993  21.8492753  10.6821673  55.4376993  19.2242753  13.1901673
  55.3566993  18.3802753  13.3961673  55.1236993  19.2682753  12.3771673
  55.3796993  19.1062753  13.1001673  62.3626993  31.4192753   2.3261673
  62.1576993  32.2522753   2.1671673  61.5876993  31.0372753   2.4481673
  62.2176993  31.4862753   2.3211673  52.2806993  27.0402753  11.0031673
  52.6006993  27.2592753  10.2221673  52.1806993  26.1752753  10.9481673
  52.3126993  26.9452753  10.8801673  62.4176993  19.5902753   5.2111673
  61.7176993  20.1082753   5.1551673  62.4556993  19.2102753   4.4271673
  62.3196993  19.6112753   5.0871673  57.0436993  26.3322753  12.3881673
  56.6476993  27.1062753  12.4631673  56.6376993  25.9592753  11.7121673
  56.9256993  26.3912753  12.2991673  57.4726993  19.3092753   9.8381673
  56.6086993  19.3932753   9.9181673  57.6926993  18.7952753  10.5071673
  57.3776993  19.2462753   9.9491673  61.5756993  20.0572753   8.2121673
  60.8386993  19.6032753   8.3251673  62.1466993  19.6552753   8.7351673
  61.5506993  19.9302753   8.3061673  59.0786993  24.3862753  13.4161673
  58.7566993  23.8102753  12.8461673  58.7196993  25.1412753  13.1701673
  58.9786993  24.4122753  13.2961673  57.5136993  34.7422753  13.6641673
  57.5546993  34.8682753  14.5271673  58.1646993  34.1822753  13.5081673
  57.6156993  34.6782753  13.7691673  54.6926993  19.3922753  10.4861673
  54.3496993  18.6252753  10.2521673  53.9976993  19.9162753  10.5501673
  54.5396993  19.3562753  10.4611673  55.1066993  33.1252753  15.0241673
  55.7016993  33.5562753  15.4961673  54.7426993  33.7492753  14.5351673
  55.1406993  33.2812753  15.0211673  53.3456993  22.7062753   4.4421673
  52.9776993  23.0082753   5.1731673  53.8796993  22.0772753   4.7261673
  53.3696993  22.6582753   4.5921673  53.0336993  31.1142753  11.9531673
  52.4596993  31.5302753  12.4621673  53.7666993  31.5792753  12.0481673
  53.0576993  31.2442753  12.0421673  58.1256993  19.7532753  13.5721673
  58.3596993  19.1772753  12.9591673  57.2836993  19.5722753  13.7131673
  58.0356993  19.6412753  13.5021673  55.5066993  33.1962753   7.2051673
  55.4276993  32.3862753   6.8891673  55.0626993  33.6832753   6.6331673
  55.4296993  33.1482753   7.0741673  53.0786993  35.4402753  10.7861673
  53.5716993  35.3842753  11.5041673  53.2666993  34.7072753  10.3511673
  53.1796993  35.3232753  10.8281673  62.3256993   6.3941673  83.6291313
  61.8016993   6.9901673  83.9921313  62.7226993   6.0261673  84.3131313
  62.3066993   6.4281673  83.7841313  52.1946993  10.5341673  79.0851313
  51.7536993  10.6521673  79.8281313  51.9116993   9.7591673  78.8001313
  52.0876993  10.4371673  79.1531313  51.9376993   4.3261673  75.5921313
  51.1596993   4.4881673  75.2321313  51.9766993   3.4551673  75.6141313
  51.8286993   4.2211673  75.5421313  55.0766993   9.5891673  74.2641313
  54.6846993   9.2181673  73.5781313  54.9966993   8.9911673  74.8931313
  55.0066993   9.4461673  74.2551313  54.7036993  11.2301673  78.1641313
  55.3116993  11.0601673  78.7671313  53.9526993  11.0901673  78.5851313
  54.6826993  11.1841673  78.3151313  53.5946993  14.3211673  74.2411313
  54.0616993  14.4051673  73.5091313  54.0496993  13.7431673  74.7101313
  53.7306993  14.2481673  74.2021313  52.1346993  13.2691673  85.3401313
  52.2636993  12.9891673  86.1561313  51.5246993  12.7281673  85.0311313
  52.0636993  13.1481673  85.4151313  53.5806993   7.7901673  79.5421313
  53.1186993   7.3981673  78.9151313  54.2806993   7.2771673  79.6341313
  53.6156993   7.6571673  79.4631313  58.0886993   3.4001673  84.8891313
  58.7666993   3.4181673  84.3401313  58.0436993   2.5641673  85.1341313
  58.1816993   3.2791673  84.8441313  58.6906993  13.9861673  87.6701313
  58.8286993  14.7461673  87.2631313  59.4816993  13.6211673  87.6971313
  58.8276993  14.0451673  87.6141313  55.5816993   5.8901673  79.5651313
  56.3986993   5.7031673  79.8081313  55.1046993   5.2761673  79.9611313
  55.6316993   5.7721673  79.6601313  59.7856993  11.8711673  82.1751313
  60.1336993  11.0721673  82.2051313  60.4506993  12.3751673  81.9201313
  59.9356993  11.8271673  82.1421313  59.8426993  11.3201673  78.3861313
  60.1736993  10.6761673  78.8721313  60.0826993  11.1091673  77.5751313
  59.9266993  11.1941673  78.3381313  52.0366993   5.5511673  82.5551313
  51.7806993   6.3821673  82.4801313  51.3726993   5.1681673  82.9721313
  51.9006993   5.6171673  82.6061313  51.9466993  15.2611673  80.4551313
  51.3546993  15.8191673  80.1421313  52.3726993  14.9921673  79.7431313
  51.9226993  15.3031673  80.3041313  57.7866993  13.1051673  77.9351313
  57.2076993  12.8301673  78.5271313  58.4106993  12.4961673  77.9601313
  57.7936993  12.9751673  78.0261313  62.0976993  15.7851673  77.4471313
  62.3116993  16.3121673  78.1091313  62.8646993  15.6111673  77.0681313
  62.2426993  15.8371673  77.4891313  53.4916993  13.9311673  78.3861313
  54.1476993  13.3561673  78.4011313  53.8806993  14.6801673  78.1651313
  53.6466993  13.9561673  78.3561313  54.3096993  12.4181673  81.8861313
  54.7326993  12.0621673  81.2121313  54.6336993  11.9961673  82.5781313
  54.4196993  12.3031673  81.8891313  57.5406993  15.2701673  81.1821313
  58.3846993  15.3741673  80.9871313  57.2436993  16.0881673  81.2501313
  57.6216993  15.4061673  81.1631313  61.3476993   4.6671673  79.2691313
  61.6346993   4.4351673  78.4791313  62.0796993   4.7461673  79.7381313
  61.4976993   4.6441673  79.2221313  62.0696993   5.0061673  74.3901313
  62.3506993   5.7941673  74.6391313  61.2936993   5.1711673  74.0271313
  61.9966993   5.1471673  74.3731313  56.5386993  16.4891673  86.9221313
  56.8306993  16.4221673  87.7421313  55.9126993  15.8841673  86.8771313
  56.4896993  16.3901673  87.0371313  60.9286993  13.1771673  74.2061313
  60.7476993  13.7221673  74.8631313  61.6946993  13.4671673  73.9051313
  61.0146993  13.3011673  74.2591313  54.5316993  14.6511673  86.0441313
  53.8336993  14.1431673  86.1701313  54.7916993  14.4461673  85.2361313
  54.4666993  14.5461673  85.9431313  61.6936993   3.4491673  76.5741313
  61.1856993   2.7871673  76.3201313  61.7456993   3.9531673  75.8641313
  61.6266993   3.4261673  76.4321313  62.2426993  16.1441673  86.9541313
  63.0106993  16.0641673  86.5481313  61.6596993  16.0231673  86.3161313
  62.2696993  16.1141673  86.8001313  60.2916993   2.7571673  80.9871313
  60.3656993   3.3251673  80.3291313  60.4126993   3.2491673  81.6971313
  60.3196993   2.9141673  80.9951313  57.8556993   9.0131673  83.3601313
  58.0276993   8.8031673  84.1891313  57.2006993   8.4791673  83.1441313
  57.7846993   8.9031673  83.4511313  58.6056993   8.9511673  85.9501313
  58.6586993   9.7981673  86.1521313  58.3206993   8.5811673  86.6871313
  58.5716993   9.0211673  86.0881313  55.3476993   2.3901673  80.9891313
  55.6196993   1.9601673  80.2811313  55.1716993   1.7541673  81.5601313
  55.3616993   2.2331673  80.9691313  55.1716993   9.8171673  80.5381313
  56.0226993   9.7371673  80.3651313  54.8146993   9.1351673  80.1261313
  55.2446993   9.7041673  80.4511313  53.9386993  16.5421673  81.7751313
  53.2656993  16.0441673  81.5301313  54.3416993  16.7271673  81.0241313
  53.8986993  16.4961673  81.6281313  53.4886993   3.4921673  84.0711313
  54.3316993   3.7121673  84.0281313  53.0996993   4.0651673  83.5401313
  53.5556993   3.6091673  83.9861313  57.5396993   9.8241673  78.7731313
  58.2526993  10.3191673  78.8631313  57.7616993   9.2571673  78.1471313
  57.6776993   9.8131673  78.6941313  51.6956993  11.4671673  82.0931313
  51.0286993  11.9551673  82.3691313  52.3756993  12.0121673  82.1221313
  51.6976993  11.6191673  82.1381313  51.7616993   8.1511673  77.1961313
  51.5766993   7.3121673  77.3481313  52.4206993   8.1151673  76.6261313
  51.8316993   8.0221673  77.1341313  62.0626993  13.5271673  81.1001313
  61.5396993  14.1611673  80.8071313  62.3726993  13.1631673  80.3711313
  62.0306993  13.5671673  80.9491313  51.9336993  12.3151673  76.7711313
  52.4856993  12.8841673  77.1351313  51.7016993  11.8001673  77.4361313
  51.9806993  12.3231673  76.9231313  56.1376993  11.3151673  83.8601313
  56.6046993  11.6041673  84.5381313  56.7096993  10.8371673  83.4061313
  56.2916993  11.2871673  83.8931313  51.7636993  10.7641673  74.3991313
  52.5196993  10.3321673  74.4571313  51.7786993  11.2961673  75.0901313
  51.8776993  10.7791673  74.5101313  52.7036993   8.9851673  82.4041313
  53.1346993   8.8561673  81.6571313  52.4986993   9.8331673  82.3781313
  52.7366993   9.0911673  82.2901313  59.0496993   2.5491673  76.0541313
  59.0476993   2.4321673  75.1891313  58.8686993   3.3971673  76.1461313
  59.0226993   2.6571673  75.9401313  56.7876993  12.5011673  80.6861313
  56.9136993  13.3441673  80.8731313  57.4556993  12.1021673  81.0821313
  56.9056993  12.5671673  80.7721313  55.4026993   5.3811673  75.6881313
  55.2746993   4.9331673  76.4261313  54.8206993   5.0391673  75.1361313
  55.2976993   5.2641673  75.7161313  55.5696993   7.2111673  82.2871313
  54.7886993   7.1521673  81.9041313  55.6416993   6.4591673  82.7241313
  55.4646993   7.0921673  82.2951313  55.9996993   6.9481673  85.7551313
  56.0246993   6.2731673  85.2041313  55.3536993   7.4441673  85.4431313
  55.9086993   6.9211673  85.6281313  60.0996993  15.7251673  85.1471313
  59.8226993  15.0841673  84.6241313  59.8916993  16.4511673  84.7091313
  60.0286993  15.7381673  85.0051313  60.6696993   4.1001673  83.3871313
  61.1496993   4.7991673  83.5951313  61.0426993   3.4531673  83.8381313
  60.7956993   4.1081673  83.4841313  62.8586993   7.2691673  75.6611313
  62.8506993   7.9911673  75.1711313  62.2196993   7.4041673  76.2381313
  62.7636993   7.3961673  75.6741313  57.7806993  15.8681673  77.3341313
  57.6336993  15.0921673  77.7051313  58.4696993  15.7211673  76.8191313
  57.8606993  15.7311673  77.3131313  60.0726993  15.3841673  75.7361313
  60.6946993  15.5471673  76.3261313  60.1086993  16.0751673  75.2041313
  60.1696993  15.5101673  75.7451313  54.5736993   7.9181673  76.5651313
  54.8976993   7.1391673  76.3431313  55.2196993   8.2861673  77.0201313
  54.7166993   7.8571673  76.5991313  61.2636993   7.2601673  77.9901313
  61.3226993   7.9101673  78.5691313  61.0746993   6.5641673  78.4811313
  61.2446993   7.2531673  78.1481313  55.7596993   1.7771673  74.5021313
  55.2486993   1.8301673  73.7961313  56.5436993   2.0171673  74.2061313
  55.7996993   1.8201673  74.3541313  60.4866993   9.3071673  82.4211313
  59.6396993   9.1131673  82.5021313  60.8106993   9.1421673  83.2141313
  60.4086993   9.2541673  82.5501313  57.2386993  16.0371673  73.3071313
  57.6776993  15.3401673  73.5951313  57.4456993  16.6611673  73.8801313
  57.3346993  16.0261673  73.4341313  54.3346993   9.0001673  84.7371313
  55.0566993   9.4881673  84.7001313  54.0646993   8.9701673  83.9081313
  54.4016993   9.0681673  84.6091313  57.5646993   4.1711673  81.4721313
  58.4106993   3.9811673  81.5701313  57.1946993   3.3941673  81.3341313
  57.6346993   4.0281673  81.4661313  52.3856993   5.5091673  78.1271313
  52.8746993   5.2171673  78.7881313  52.5146993   4.9161673  77.5001313
  52.4766993   5.3781673  78.1321313  56.9106993   6.9431673  73.6131313
  56.3006993   6.5381673  74.0871313  56.5246993   7.0611673  72.8401313
  56.7636993   6.9001673  73.5691313  58.3656993   5.4041673  76.3231313
  58.6376993   6.2301673  76.3901313  57.5026993   5.4791673  76.2271313
  58.2786993   5.5371673  76.3181313  58.4686993  11.8631673  85.6331313
  58.1706993  12.4551673  86.2001313  58.5236993  12.3051673  84.8841313
  58.4326993  12.0161673  85.6061313  60.9846993   8.2861673  85.1241313
  61.4606993   8.6601673  85.7521313  60.1616993   8.4201673  85.3831313
  60.9336993   8.3611673  85.2551313  60.2486993  15.6791673  80.3521313
  60.7946993  16.3581673  80.4061313  59.8986993  15.7611673  79.5571313
  60.2776993  15.7921673  80.2421313  58.4316993  13.9071673  83.7411313
  57.8076993  14.4891673  83.5591313  58.6796993  13.6211673  82.9551313
  58.3756993  13.9511673  83.5981313  60.0256993   8.6831673  73.6561313
  59.2206993   8.5061673  73.3711313  59.9926993   9.5341673  73.8481313
  59.9016993   8.7821673  73.6431313  55.9556993   4.7501673  83.8061313
  56.3956993   4.6471673  83.0601313  56.5006993   4.4371673  84.4111313
  56.1006993   4.6891673  83.7851313  56.9736993  16.9821673  83.9581313
  56.9846993  17.0411673  84.8281313  56.5486993  16.2351673  83.8081313
  56.9126993  16.8801673  84.0641313  55.1316993   2.8771673  77.1131313
  55.2576993   2.5481673  76.3151313  54.3196993   2.6281673  77.3121313
  55.0306993   2.7921673  77.0251313  61.4106993   9.3041673  79.7221313
  61.1126993   8.9891673  80.4791313  62.1056993   9.7771673  79.9571313
  61.4696993   9.3271673  79.8691313  62.0406993  11.3501673  85.1821313
  61.3466993  11.7521673  85.5251313  62.7176993  11.7831673  85.5211313
  62.0376993  11.4731673  85.2831313  55.1086993   4.8881673  87.5291313
  55.4836993   5.5071673  87.0421313  55.7826993   4.4141673  87.8141313
  55.2636993   4.9101673  87.4991313  52.8836993   3.3361673  86.8041313
  52.9606993   3.1671673  85.9511313  53.6296993   3.7421673  87.0011313
  53.0046993   3.3711673  86.7071313  62.3626993  12.9411673  78.3511313
  62.1576993  13.7741673  78.1921313  61.5876993  12.5591673  78.4731313
  62.2176993  13.0081673  78.3461313  52.2806993   8.5621673  87.0281313
  52.6006993   8.7811673  86.2471313  52.1806993   7.6971673  86.9731313
  52.3126993   8.4671673  86.9051313  53.7366993   4.4981673  73.6461313
  53.0646993   4.5121673  74.2021313  53.8316993   3.6501673  73.4621313
  53.6516993   4.3751673  73.7011313  57.7246993  13.2031673  74.7601313
  58.1656993  13.2831673  75.5081313  56.9196993  12.9871673  75.0181313
  57.6706993  13.1831673  74.9091313  55.0536993  12.2731673  75.3611313
  54.8096993  11.9661673  76.1411313  55.0206993  11.5701673  74.8451313
  55.0126993  12.1241673  75.4001313  57.8726993  10.5181673  74.1041313
  57.0546993  10.2501673  74.2441313  57.8446993  11.3701673  74.2891313
  57.7476993  10.6051673  74.1521313  53.3456993   4.2281673  80.4671313
  52.9776993   4.5301673  81.1981313  53.8796993   3.5991673  80.7511313
  53.3696993   4.1801673  80.6171313  54.8196993  15.9031673  76.7531313
  54.6746993  16.0591673  75.9071313  55.6856993  15.9821673  76.8311313
  54.9266993  15.9381673  76.6401313  58.9866993   8.3001673  76.4811313
  59.0866993   8.4391673  75.6261313  59.8046993   8.2401673  76.7771313
  59.1216993   8.3111673  76.3981313  55.5066993  14.7181673  83.2301313
  55.4276993  13.9081673  82.9141313  55.0626993  15.2051673  82.6581313
  55.4296993  14.6701673  83.0991313  61.1076993  10.8371673  75.7131313
  61.8246993  10.4901673  75.3571313  61.0736993  11.6371673  75.3651313
  61.2086993  10.9041673  75.6091313  53.0786993  16.9621673  86.8111313
  53.5716993  16.9061673  87.5291313  53.2666993  16.2291673  86.3761313
  53.1796993  16.8451673  86.8531313  62.3256993   6.3941673  64.6228903
  61.8016993   6.9901673  64.9858903  62.7226993   6.0261673  65.3068903
  62.3066993   6.4281673  64.7778903  52.1946993  10.5341673  60.0788903
  51.7536993  10.6521673  60.8218903  51.9116993   9.7591673  59.7938903
  52.0876993  10.4371673  60.1468903  51.9376993   4.3261673  56.5858903
  51.1596993   4.4881673  56.2258903  51.9766993   3.4551673  56.6078903
  51.8286993   4.2211673  56.5358903  55.0766993   9.5891673  55.2578903
  54.6846993   9.2181673  54.5718903  54.9966993   8.9911673  55.8868903
  55.0066993   9.4461673  55.2488903  54.7036993  11.2301673  59.1578903
  55.3116993  11.0601673  59.7608903  53.9526993  11.0901673  59.5788903
  54.6826993  11.1841673  59.3088903  53.5946993  14.3211673  55.2348903
  54.0616993  14.4051673  54.5028903  54.0496993  13.7431673  55.7038903
  53.7306993  14.2481673  55.1958903  52.1346993  13.2691673  66.3338903
  52.2636993  12.9891673  67.1498903  51.5246993  12.7281673  66.0248903
  52.0636993  13.1481673  66.4088903  58.7086993  10.7941673  71.4008903
  58.4726993  10.7911673  72.2408903  57.9606993  10.6461673  70.9768903
  58.5626993  10.7711673  71.4618903  53.5806993   7.7901673  60.5358903
  53.1186993   7.3981673  59.9088903  54.2806993   7.2771673  60.6278903
  53.6156993   7.6571673  60.4568903  58.0886993   3.4001673  65.8828903
  58.7666993   3.4181673  65.3338903  58.0436993   2.5641673  66.1278903
  58.1816993   3.2791673  65.8378903  58.6906993  13.9861673  68.6638903
  58.8286993  14.7461673  68.2568903  59.4816993  13.6211673  68.6908903
  58.8276993  14.0451673  68.6078903  55.5816993   5.8901673  60.5588903
  56.3986993   5.7031673  60.8018903  55.1046993   5.2761673  60.9548903
  55.6316993   5.7721673  60.6538903  59.7856993  11.8711673  63.1688903
  60.1336993  11.0721673  63.1988903  60.4506993  12.3751673  62.9138903
  59.9356993  11.8271673  63.1358903  59.8426993  11.3201673  59.3798903
  60.1736993  10.6761673  59.8658903  60.0826993  11.1091673  58.5688903
  59.9266993  11.1941673  59.3318903  61.8106993   5.4511673  70.7188903
  60.9626993   5.3521673  70.5408903  61.8396993   6.1961673  71.1728903
  61.6896993   5.5471673  70.7598903  52.0366993   5.5511673  63.5488903
  51.7806993   6.3821673  63.4738903  51.3726993   5.1681673  63.9658903
  51.9006993   5.6171673  63.5998903  51.9466993  15.2611673  61.4488903
  51.3546993  15.8191673  61.1358903  52.3726993  14.9921673  60.7368903
  51.9226993  15.3031673  61.2978903  57.7866993  13.1051673  58.9288903
  57.2076993  12.8301673  59.5208903  58.4106993  12.4961673  58.9538903
  57.7936993  12.9751673  59.0198903  62.0976993  15.7851673  58.4408903
  62.3116993  16.3121673  59.1028903  62.8646993  15.6111673  58.0618903
  62.2426993  15.8371673  58.4828903  58.3716993   2.5011673  73.3378903
  58.4886993   2.0471673  72.6018903  58.6596993   3.2991673  73.1348903
  58.4316993   2.5521673  73.1988903  53.4916993  13.9311673  59.3798903
  54.1476993  13.3561673  59.3948903  53.8806993  14.6801673  59.1588903
  53.6466993  13.9561673  59.3498903  54.3096993  12.4181673  62.8798903
  54.7326993  12.0621673  62.2058903  54.6336993  11.9961673  63.5718903
  54.4196993  12.3031673  62.8828903  57.5406993  15.2701673  62.1758903
  58.3846993  15.3741673  61.9808903  57.2436993  16.0881673  62.2438903
  57.6216993  15.4061673  62.1568903  61.3476993   4.6671673  60.2628903
  61.6346993   4.4351673  59.4728903  62.0796993   4.7461673  60.7318903
  61.4976993   4.6441673  60.2158903  62.0696993   5.0061673  55.3838903
  62.3506993   5.7941673  55.6328903  61.2936993   5.1711673  55.0208903
  61.9966993   5.1471673  55.3668903  56.5386993  16.4891673  67.9158903
  56.8306993  16.4221673  68.7358903  55.9126993  15.8841673  67.8708903
  56.4896993  16.3901673  68.0308903  51.4526993   2.6461673  69.9078903
  51.4486993   3.2331673  70.5538903  52.0466993   2.9581673  69.3508903
  51.5396993   2.7791673  69.9208903  60.9286993  13.1771673  55.1998903
  60.7476993  13.7221673  55.8568903  61.6946993  13.4671673  54.8988903
  61.0146993  13.3011673  55.2528903  54.5316993  14.6511673  67.0378903
  53.8336993  14.1431673  67.1638903  54.7916993  14.4461673  66.2298903
  54.4666993  14.5461673  66.9368903  61.6936993   3.4491673  57.5678903
  61.1856993   2.7871673  57.3138903  61.7456993   3.9531673  56.8578903
  61.6266993   3.4261673  57.4258903  62.2426993  16.1441673  67.9478903
  63.0106993  16.0641673  67.5418903  61.6596993  16.0231673  67.3098903
  62.2696993  16.1141673  67.7938903  60.2916993   2.7571673  61.9808903
  60.3656993   3.3251673  61.3228903  60.4126993   3.2491673  62.6908903
  60.3196993   2.9141673  61.9888903  55.8926993  13.5021673  69.6048903
  56.7336993  13.5651673  69.3828903  55.8556993  13.8991673  70.3808903
  56.0116993  13.5701673  69.6868903  57.8556993   9.0131673  64.3538903
  58.0276993   8.8031673  65.1828903  57.2006993   8.4791673  64.1378903
  57.7846993   8.9031673  64.4448903  58.6056993   8.9511673  66.9438903
  58.6586993   9.7981673  67.1458903  58.3206993   8.5811673  67.6808903
  58.5716993   9.0211673  67.0818903  51.4266993  13.3221673  73.1548903
  52.1826993  13.6711673  73.4128903  51.6036993  12.4691673  73.0978903
  51.5646993  13.2471673  73.1848903  55.3476993   2.3901673  61.9828903
  55.6196993   1.9601673  61.2748903  55.1716993   1.7541673  62.5538903
  55.3616993   2.2331673  61.9628903  55.1716993   9.8171673  61.5318903
  56.0226993   9.7371673  61.3588903  54.8146993   9.1351673  61.1198903
  55.2446993   9.7041673  61.4448903  53.9386993  16.5421673  62.7688903
  53.2656993  16.0441673  62.5238903  54.3416993  16.7271673  62.0178903
  53.8986993  16.4961673  62.6218903  53.4886993   3.4921673  65.0648903
  54.3316993   3.7121673  65.0218903  53.0996993   4.0651673  64.5338903
  53.5556993   3.6091673  64.9798903  57.5396993   9.8241673  59.7668903
  58.2526993  10.3191673  59.8568903  57.7616993   9.2571673  59.1408903
  57.6776993   9.8131673  59.6878903  51.6956993  11.4671673  63.0868903
  51.0286993  11.9551673  63.3628903  52.3756993  12.0121673  63.1158903
  51.6976993  11.6191673  63.1318903  59.3426993   5.1771673  73.1828903
  58.8586993   5.7541673  73.6248903  59.3146993   5.4721673  72.3618903
  59.2666993   5.3061673  73.1268903  51.7616993   8.1511673  58.1898903
  51.5766993   7.3121673  58.3418903  52.4206993   8.1151673  57.6198903
  51.8316993   8.0221673  58.1278903  62.0626993  13.5271673  62.0938903
  61.5396993  14.1611673  61.8008903  62.3726993  13.1631673  61.3648903
  62.0306993  13.5671673  61.9428903  51.9336993  12.3151673  57.7648903
  52.4856993  12.8841673  58.1288903  51.7016993  11.8001673  58.4298903
  51.9806993  12.3231673  57.9168903  56.1376993  11.3151673  64.8538903
  56.6046993  11.6041673  65.5318903  56.7096993  10.8371673  64.3998903
  56.2916993  11.2871673  64.8868903  51.7636993  10.7641673  55.3928903
  52.5196993  10.3321673  55.4508903  51.7786993  11.2961673  56.0838903
  51.8776993  10.7791673  55.5038903  52.7036993   8.9851673  63.3978903
  53.1346993   8.8561673  62.6508903  52.4986993   9.8331673  63.3718903
  52.7366993   9.0911673  63.2838903  59.0496993   2.5491673  57.0478903
  59.0476993   2.4321673  56.1828903  58.8686993   3.3971673  57.1398903
  59.0226993   2.6571673  56.9338903  56.7876993  12.5011673  61.6798903
  56.9136993  13.3441673  61.8668903  57.4556993  12.1021673  62.0758903
  56.9056993  12.5671673  61.7658903  54.9176993   5.9841673  71.5418903
  54.3816993   5.4781673  72.0098903  54.9376993   5.5941673  70.7618903
  54.8406993   5.8511673  71.4958903  55.4026993   5.3811673  56.6818903
  55.2746993   4.9331673  57.4198903  54.8206993   5.0391673  56.1298903
  55.2976993   5.2641673  56.7098903  55.5696993   7.2111673  63.2808903
  54.7886993   7.1521673  62.8978903  55.6416993   6.4591673  63.7178903
  55.4646993   7.0921673  63.2888903  55.9996993   6.9481673  66.7488903
  56.0246993   6.2731673  66.1978903  55.3536993   7.4441673  66.4368903
  55.9086993   6.9211673  66.6218903  60.0996993  15.7251673  66.1408903
  59.8226993  15.0841673  65.6178903  59.8916993  16.4511673  65.7028903
  60.0286993  15.7381673  65.9988903  53.7986993   8.3031673  72.3078903
  53.7616993   8.8041673  71.5938903  54.1296993   7.5511673  72.0128903
  53.8416993   8.2651673  72.1588903  59.6976993  13.3531673  71.7428903
  60.0516993  13.1751673  72.5198903  59.2616993  12.6241673  71.5438903
  59.6856993  13.2191673  71.8288903  60.6696993   4.1001673  64.3808903
  61.1496993   4.7991673  64.5888903  61.0426993   3.4531673  64.8318903
  60.7956993   4.1081673  64.4778903  62.8586993   7.2691673  56.6548903
  62.8506993   7.9911673  56.1648903  62.2196993   7.4041673  57.2318903
  62.7636993   7.3961673  56.6678903  57.7806993  15.8681673  58.3278903
  57.6336993  15.0921673  58.6988903  58.4696993  15.7211673  57.8128903
  57.8606993  15.7311673  58.3068903  60.0726993  15.3841673  56.7298903
  60.6946993  15.5471673  57.3198903  60.1086993  16.0751673  56.1978903
  60.1696993  15.5101673  56.7388903  54.5736993   7.9181673  57.5588903
  54.8976993   7.1391673  57.3368903  55.2196993   8.2861673  58.0138903
  54.7166993   7.8571673  57.5928903  61.2636993   7.2601673  58.9838903
  61.3226993   7.9101673  59.5628903  61.0746993   6.5641673  59.4748903
  61.2446993   7.2531673  59.1418903  55.7596993   1.7771673  55.4958903
  55.2486993   1.8301673  54.7898903  56.5436993   2.0171673  55.1998903
  55.7996993   1.8201673  55.3478903  60.4866993   9.3071673  63.4148903
  59.6396993   9.1131673  63.4958903  60.8106993   9.1421673  64.2078903
  60.4086993   9.2541673  63.5438903  57.2386993  16.0371673  54.3008903
  57.6776993  15.3401673  54.5888903  57.4456993  16.6611673  54.8738903
  57.3346993  16.0261673  54.4278903  54.3346993   9.0001673  65.7308903
  55.0566993   9.4881673  65.6938903  54.0646993   8.9701673  64.9018903
  54.4016993   9.0681673  65.6028903  57.5646993   4.1711673  62.4658903
  58.4106993   3.9811673  62.5638903  57.1946993   3.3941673  62.3278903
  57.6346993   4.0281673  62.4598903  52.3856993   5.5091673  59.1208903
  52.8746993   5.2171673  59.7818903  52.5146993   4.9161673  58.4938903
  52.4766993   5.3781673  59.1258903  56.9106993   6.9431673  54.6068903
  56.3006993   6.5381673  55.0808903  56.5246993   7.0611673  53.8338903
  56.7636993   6.9001673  54.5628903  53.7296993  10.0521673  70.0088903
  53.3086993   9.5341673  69.4478903  53.3776993  10.8381673  69.8658903
  53.6156993  10.0921673  69.9048903  58.3656993   5.4041673  57.3168903
  58.6376993   6.2301673  57.3838903  57.5026993   5.4791673  57.2208903
  58.2786993   5.5371673  57.3118903  58.4686993  11.8631673  66.6268903
  58.1706993  12.4551673  67.1938903  58.5236993  12.3051673  65.8778903
  58.4326993  12.0161673  66.5998903  56.4476993  10.8131673  70.0248903
  55.6416993  10.5231673  70.1918903  56.3586993  11.6811673  70.0308903
  56.3156993  10.8981673  70.0498903  60.9846993   8.2861673  66.1178903
  61.4606993   8.6601673  66.7458903  60.1616993   8.4201673  66.3768903
  60.9336993   8.3611673  66.2488903  57.6946993   3.8891673  68.8588903
  57.8556993   3.1451673  69.2858903  57.6496993   3.6401673  68.0238903
  57.7116993   3.7421673  68.7988903  60.2486993  15.6791673  61.3458903
  60.7946993  16.3581673  61.3998903  59.8986993  15.7611673  60.5508903
  60.2776993  15.7921673  61.2358903  58.4316993  13.9071673  64.7348903
  57.8076993  14.4891673  64.5528903  58.6796993  13.6211673  63.9488903
  58.3756993  13.9511673  64.5918903  60.0256993   8.6831673  54.6498903
  59.2206993   8.5061673  54.3648903  59.9926993   9.5341673  54.8418903
  59.9016993   8.7821673  54.6368903  55.9556993   4.7501673  64.7998903
  56.3956993   4.6471673  64.0538903  56.5006993   4.4371673  65.4048903
  56.1006993   4.6891673  64.7788903  61.0846993  15.5561673  70.6148903
  61.5626993  14.9561673  70.1988903  60.7336993  15.1131673  71.2798903
  61.1036993  15.4021673  70.6518903  61.1436993  10.7751673  69.6348903
  60.3486993  10.7111673  69.9858903  61.2146993  11.6221673  69.4398903
  61.0366993  10.8901673  69.6578903  56.9736993  16.9821673  64.9518903
  56.9846993  17.0411673  65.8218903  56.5486993  16.2351673  64.8018903
  56.9126993  16.8801673  65.0578903  55.1316993   2.8771673  58.1068903
  55.2576993   2.5481673  57.3088903  54.3196993   2.6281673  58.3058903
  55.0306993   2.7921673  58.0188903  61.4106993   9.3041673  60.7158903
  61.1126993   8.9891673  61.4728903  62.1056993   9.7771673  60.9508903
  61.4696993   9.3271673  60.8628903  61.6326993  13.4221673  68.7428903
  62.3196993  13.3081673  69.2678903  61.7666993  14.2131673  68.3988903
  61.7536993  13.5221673  68.7698903  53.7376993  16.4801673  70.3938903
  53.0836993  15.9111673  70.4918903  53.3626993  17.2531673  70.5448903
  53.5856993  16.5101673  70.4308903  62.2556993   7.8861673  72.3168903
  62.5786993   8.5721673  71.8848903  61.5516993   8.2091673  72.7188903
  62.1986993   8.0351673  72.3118903  62.0406993  11.3501673  66.1758903
  61.3466993  11.7521673  66.5188903  62.7176993  11.7831673  66.5148903
  62.0376993  11.4731673  66.2768903  55.1086993   4.8881673  68.5228903
  55.4836993   5.5071673  68.0358903  55.7826993   4.4141673  68.8078903
  55.2636993   4.9101673  68.4928903  52.8836993   3.3361673  67.7978903
  52.9606993   3.1671673  66.9448903  53.6296993   3.7421673  67.9948903
  53.0046993   3.3711673  67.7008903  62.3626993  12.9411673  59.3448903
  62.1576993  13.7741673  59.1858903  61.5876993  12.5591673  59.4668903
  62.2176993  13.0081673  59.3398903  52.2806993   8.5621673  68.0218903
  52.6006993   8.7811673  67.2408903  52.1806993   7.6971673  67.9668903
  52.3126993   8.4671673  67.8988903  53.7366993   4.4981673  54.6398903
  53.0646993   4.5121673  55.1958903  53.8316993   3.6501673  54.4558903
  53.6516993   4.3751673  54.6948903  57.7246993  13.2031673  55.7538903
  58.1656993  13.2831673  56.5018903  56.9196993  12.9871673  56.0118903
  57.6706993  13.1831673  55.9028903  57.0436993   7.8541673  69.4068903
  56.6476993   8.6281673  69.4818903  56.6376993   7.4811673  68.7308903
  56.9256993   7.9131673  69.3178903  55.0536993  12.2731673  56.3548903
  54.8096993  11.9661673  57.1348903  55.0206993  11.5701673  55.8388903
  55.0126993  12.1241673  56.3938903  57.8726993  10.5181673  55.0978903
  57.0546993  10.2501673  55.2378903  57.8446993  11.3701673  55.2828903
  57.7476993  10.6051673  55.1458903  59.0786993   5.9081673  70.4348903
  58.7566993   5.3321673  69.8648903  58.7196993   6.6631673  70.1888903
  58.9786993   5.9341673  70.3148903  57.5136993  16.2641673  70.6828903
  57.5546993  16.3901673  71.5458903  58.1646993  15.7041673  70.5268903
  57.6156993  16.2001673  70.7878903  55.1066993  14.6471673  72.0428903
  55.7016993  15.0781673  72.5148903  54.7426993  15.2711673  71.5538903
  55.1406993  14.8031673  72.0398903  53.3456993   4.2281673  61.4608903
  52.9776993   4.5301673  62.1918903  53.8796993   3.5991673  61.7448903
  53.3696993   4.1801673  61.6108903  53.0336993  12.6361673  68.9718903
  52.4596993  13.0521673  69.4808903  53.7666993  13.1011673  69.0668903
  53.0576993  12.7661673  69.0608903  54.8196993  15.9031673  57.7468903
  54.6746993  16.0591673  56.9008903  55.6856993  15.9821673  57.8248903
  54.9266993  15.9381673  57.6338903  58.9866993   8.3001673  57.4748903
  59.0866993   8.4391673  56.6198903  59.8046993   8.2401673  57.7708903
  59.1216993   8.3111673  57.3918903  55.5066993  14.7181673  64.2238903
  55.4276993  13.9081673  63.9078903  55.0626993  15.2051673  63.6518903
  55.4296993  14.6701673  64.0928903  61.1076993  10.8371673  56.7068903
  61.8246993  10.4901673  56.3508903  61.0736993  11.6371673  56.3588903
  61.2086993  10.9041673  56.6028903  53.0786993  16.9621673  67.8048903
  53.5716993  16.9061673  68.5228903  53.2666993  16.2291673  67.3698903
  53.1796993  16.8451673  67.8468903  62.3256993   6.3941673  45.6166493
  61.8016993   6.9901673  45.9796493  62.7226993   6.0261673  46.3006493
  62.3066993   6.4281673  45.7716493  52.1946993  10.5341673  41.0726493
  51.7536993  10.6521673  41.8156493  51.9116993   9.7591673  40.7876493
  52.0876993  10.4371673  41.1406493  51.9376993   4.3261673  37.5796493
  51.1596993   4.4881673  37.2196493  51.9766993   3.4551673  37.6016493
  51.8286993   4.2211673  37.5296493  55.0766993   9.5891673  36.2516493
  54.6846993   9.2181673  35.5656493  54.9966993   8.9911673  36.8806493
  55.0066993   9.4461673  36.2426493  54.7036993  11.2301673  40.1516493
  55.3116993  11.0601673  40.7546493  53.9526993  11.0901673  40.5726493
  54.6826993  11.1841673  40.3026493  53.5946993  14.3211673  36.2286493
  54.0616993  14.4051673  35.4966493  54.0496993  13.7431673  36.6976493
  53.7306993  14.2481673  36.1896493  52.1346993  13.2691673  47.3276493
  52.2636993  12.9891673  48.1436493  51.5246993  12.7281673  47.0186493
  52.0636993  13.1481673  47.4026493  58.7086993  10.7941673  52.3946493
  58.4726993  10.7911673  53.2346493  57.9606993  10.6461673  51.9706493
  58.5626993  10.7711673  52.4556493  53.5806993   7.7901673  41.5296493
  53.1186993   7.3981673  40.9026493  54.2806993   7.2771673  41.6216493
  53.6156993   7.6571673  41.4506493  58.0886993   3.4001673  46.8766493
  58.7666993   3.4181673  46.3276493  58.0436993   2.5641673  47.1216493
  58.1816993   3.2791673  46.8316493  58.6906993  13.9861673  49.6576493
  58.8286993  14.7461673  49.2506493  59.4816993  13.6211673  49.6846493
  58.8276993  14.0451673  49.6016493  55.5816993   5.8901673  41.5526493
  56.3986993   5.7031673  41.7956493  55.1046993   5.2761673  41.9486493
  55.6316993   5.7721673  41.6476493  59.7856993  11.8711673  44.1626493
  60.1336993  11.0721673  44.1926493  60.4506993  12.3751673  43.9076493
  59.9356993  11.8271673  44.1296493  59.8426993  11.3201673  40.3736493
  60.1736993  10.6761673  40.8596493  60.0826993  11.1091673  39.5626493
  59.9266993  11.1941673  40.3256493  61.8106993   5.4511673  51.7126493
  60.9626993   5.3521673  51.5346493  61.8396993   6.1961673  52.1666493
  61.6896993   5.5471673  51.7536493  52.0366993   5.5511673  44.5426493
  51.7806993   6.3821673  44.4676493  51.3726993   5.1681673  44.9596493
  51.9006993   5.6171673  44.5936493  51.9466993  15.2611673  42.4426493
  51.3546993  15.8191673  42.1296493  52.3726993  14.9921673  41.7306493
  51.9226993  15.3031673  42.2916493  57.7866993  13.1051673  39.9226493
  57.2076993  12.8301673  40.5146493  58.4106993  12.4961673  39.9476493
  57.7936993  12.9751673  40.0136493  62.0976993  15.7851673  39.4346493
  62.3116993  16.3121673  40.0966493  62.8646993  15.6111673  39.0556493
  62.2426993  15.8371673  39.4766493  58.3716993   2.5011673  54.3316493
  58.4886993   2.0471673  53.5956493  58.6596993   3.2991673  54.1286493
  58.4316993   2.5521673  54.1926493  53.4916993  13.9311673  40.3736493
  54.1476993  13.3561673  40.3886493  53.8806993  14.6801673  40.1526493
  53.6466993  13.9561673  40.3436493  54.3096993  12.4181673  43.8736493
  54.7326993  12.0621673  43.1996493  54.6336993  11.9961673  44.5656493
  54.4196993  12.3031673  43.8766493  57.5406993  15.2701673  43.1696493
  58.3846993  15.3741673  42.9746493  57.2436993  16.0881673  43.2376493
  57.6216993  15.4061673  43.1506493  61.3476993   4.6671673  41.2566493
  61.6346993   4.4351673  40.4666493  62.0796993   4.7461673  41.7256493
  61.4976993   4.6441673  41.2096493  62.0696993   5.0061673  36.3776493
  62.3506993   5.7941673  36.6266493  61.2936993   5.1711673  36.0146493
  61.9966993   5.1471673  36.3606493  56.5386993  16.4891673  48.9096493
  56.8306993  16.4221673  49.7296493  55.9126993  15.8841673  48.8646493
  56.4896993  16.3901673  49.0246493  51.4526993   2.6461673  50.9016493
  51.4486993   3.2331673  51.5476493  52.0466993   2.9581673  50.3446493
  51.5396993   2.7791673  50.9146493  60.9286993  13.1771673  36.1936493
  60.7476993  13.7221673  36.8506493  61.6946993  13.4671673  35.8926493
  61.0146993  13.3011673  36.2466493  54.5316993  14.6511673  48.0316493
  53.8336993  14.1431673  48.1576493  54.7916993  14.4461673  47.2236493
  54.4666993  14.5461673  47.9306493  61.6936993   3.4491673  38.5616493
  61.1856993   2.7871673  38.3076493  61.7456993   3.9531673  37.8516493
  61.6266993   3.4261673  38.4196493  62.2426993  16.1441673  48.9416493
  63.0106993  16.0641673  48.5356493  61.6596993  16.0231673  48.3036493
  62.2696993  16.1141673  48.7876493  60.2916993   2.7571673  42.9746493
  60.3656993   3.3251673  42.3166493  60.4126993   3.2491673  43.6846493
  60.3196993   2.9141673  42.9826493  55.8926993  13.5021673  50.5986493
  56.7336993  13.5651673  50.3766493  55.8556993  13.8991673  51.3746493
  56.0116993  13.5701673  50.6806493  57.8556993   9.0131673  45.3476493
  58.0276993   8.8031673  46.1766493  57.2006993   8.4791673  45.1316493
  57.7846993   8.9031673  45.4386493  58.6056993   8.9511673  47.9376493
  58.6586993   9.7981673  48.1396493  58.3206993   8.5811673  48.6746493
  58.5716993   9.0211673  48.0756493  51.4266993  13.3221673  54.1486493
  52.1826993  13.6711673  54.4066493  51.6036993  12.4691673  54.0916493
  51.5646993  13.2471673  54.1786493  55.3476993   2.3901673  42.9766493
  55.6196993   1.9601673  42.2686493  55.1716993   1.7541673  43.5476493
  55.3616993   2.2331673  42.9566493  55.1716993   9.8171673  42.5256493
  56.0226993   9.7371673  42.3526493  54.8146993   9.1351673  42.1136493
  55.2446993   9.7041673  42.4386493  53.9386993  16.5421673  43.7626493
  53.2656993  16.0441673  43.5176493  54.3416993  16.7271673  43.0116493
  53.8986993  16.4961673  43.6156493  53.4886993   3.4921673  46.0586493
  54.3316993   3.7121673  46.0156493  53.0996993   4.0651673  45.5276493
  53.5556993   3.6091673  45.9736493  57.5396993   9.8241673  40.7606493
  58.2526993  10.3191673  40.8506493  57.7616993   9.2571673  40.1346493
  57.6776993   9.8131673  40.6816493  51.6956993  11.4671673  44.0806493
  51.0286993  11.9551673  44.3566493  52.3756993  12.0121673  44.1096493
  51.6976993  11.6191673  44.1256493  59.3426993   5.1771673  54.1766493
  58.8586993   5.7541673  54.6186493  59.3146993   5.4721673  53.3556493
  59.2666993   5.3061673  54.1206493  51.7616993   8.1511673  39.1836493
  51.5766993   7.3121673  39.3356493  52.4206993   8.1151673  38.6136493
  51.8316993   8.0221673  39.1216493  62.0626993  13.5271673  43.0876493
  61.5396993  14.1611673  42.7946493  62.3726993  13.1631673  42.3586493
  62.0306993  13.5671673  42.9366493  51.9336993  12.3151673  38.7586493
  52.4856993  12.8841673  39.1226493  51.7016993  11.8001673  39.4236493
  51.9806993  12.3231673  38.9106493  56.1376993  11.3151673  45.8476493
  56.6046993  11.6041673  46.5256493  56.7096993  10.8371673  45.3936493
  56.2916993  11.2871673  45.8806493  51.7636993  10.7641673  36.3866493
  52.5196993  10.3321673  36.4446493  51.7786993  11.2961673  37.0776493
  51.8776993  10.7791673  36.4976493  52.7036993   8.9851673  44.3916493
  53.1346993   8.8561673  43.6446493  52.4986993   9.8331673  44.3656493
  52.7366993   9.0911673  44.2776493  59.0496993   2.5491673  38.0416493
  59.0476993   2.4321673  37.1766493  58.8686993   3.3971673  38.1336493
  59.0226993   2.6571673  37.9276493  56.7876993  12.5011673  42.6736493
  56.9136993  13.3441673  42.8606493  57.4556993  12.1021673  43.0696493
  56.9056993  12.5671673  42.7596493  54.9176993   5.9841673  52.5356493
  54.3816993   5.4781673  53.0036493  54.9376993   5.5941673  51.7556493
  54.8406993   5.8511673  52.4896493  55.4026993   5.3811673  37.6756493
  55.2746993   4.9331673  38.4136493  54.8206993   5.0391673  37.1236493
  55.2976993   5.2641673  37.7036493  55.5696993   7.2111673  44.2746493
  54.7886993   7.1521673  43.8916493  55.6416993   6.4591673  44.7116493
  55.4646993   7.0921673  44.2826493  55.9996993   6.9481673  47.7426493
  56.0246993   6.2731673  47.1916493  55.3536993   7.4441673  47.4306493
  55.9086993   6.9211673  47.6156493  60.0996993  15.7251673  47.1346493
  59.8226993  15.0841673  46.6116493  59.8916993  16.4511673  46.6966493
  60.0286993  15.7381673  46.9926493  53.7986993   8.3031673  53.3016493
  53.7616993   8.8041673  52.5876493  54.1296993   7.5511673  53.0066493
  53.8416993   8.2651673  53.1526493  59.6976993  13.3531673  52.7366493
  60.0516993  13.1751673  53.5136493  59.2616993  12.6241673  52.5376493
  59.6856993  13.2191673  52.8226493  60.6696993   4.1001673  45.3746493
  61.1496993   4.7991673  45.5826493  61.0426993   3.4531673  45.8256493
  60.7956993   4.1081673  45.4716493  62.8586993   7.2691673  37.6486493
  62.8506993   7.9911673  37.1586493  62.2196993   7.4041673  38.2256493
  62.7636993   7.3961673  37.6616493  57.7806993  15.8681673  39.3216493
  57.6336993  15.0921673  39.6926493  58.4696993  15.7211673  38.8066493
  57.8606993  15.7311673  39.3006493  60.0726993  15.3841673  37.7236493
  60.6946993  15.5471673  38.3136493  60.1086993  16.0751673  37.1916493
  60.1696993  15.5101673  37.7326493  54.5736993   7.9181673  38.5526493
  54.8976993   7.1391673  38.3306493  55.2196993   8.2861673  39.0076493
  54.7166993   7.8571673  38.5866493  61.2636993   7.2601673  39.9776493
  61.3226993   7.9101673  40.5566493  61.0746993   6.5641673  40.4686493
  61.2446993   7.2531673  40.1356493  55.7596993   1.7771673  36.4896493
  55.2486993   1.8301673  35.7836493  56.5436993   2.0171673  36.1936493
  55.7996993   1.8201673  36.3416493  60.4866993   9.3071673  44.4086493
  59.6396993   9.1131673  44.4896493  60.8106993   9.1421673  45.2016493
  60.4086993   9.2541673  44.5376493  57.2386993  16.0371673  35.2946493
  57.6776993  15.3401673  35.5826493  57.4456993  16.6611673  35.8676493
  57.3346993  16.0261673  35.4216493  54.3346993   9.0001673  46.7246493
  55.0566993   9.4881673  46.6876493  54.0646993   8.9701673  45.8956493
  54.4016993   9.0681673  46.5966493  57.5646993   4.1711673  43.4596493
  58.4106993   3.9811673  43.5576493  57.1946993   3.3941673  43.3216493
  57.6346993   4.0281673  43.4536493  52.3856993   5.5091673  40.1146493
  52.8746993   5.2171673  40.7756493  52.5146993   4.9161673  39.4876493
  52.4766993   5.3781673  40.1196493  56.9106993   6.9431673  35.6006493
  56.3006993   6.5381673  36.0746493  56.5246993   7.0611673  34.8276493
  56.7636993   6.9001673  35.5566493  53.7296993  10.0521673  51.0026493
  53.3086993   9.5341673  50.4416493  53.3776993  10.8381673  50.8596493
  53.6156993  10.0921673  50.8986493  58.3656993   5.4041673  38.3106493
  58.6376993   6.2301673  38.3776493  57.5026993   5.4791673  38.2146493
  58.2786993   5.5371673  38.3056493  58.4686993  11.8631673  47.6206493
  58.1706993  12.4551673  48.1876493  58.5236993  12.3051673  46.8716493
  58.4326993  12.0161673  47.5936493  56.4476993  10.8131673  51.0186493
  55.6416993  10.5231673  51.1856493  56.3586993  11.6811673  51.0246493
  56.3156993  10.8981673  51.0436493  60.9846993   8.2861673  47.1116493
  61.4606993   8.6601673  47.7396493  60.1616993   8.4201673  47.3706493
  60.9336993   8.3611673  47.2426493  57.6946993   3.8891673  49.8526493
  57.8556993   3.1451673  50.2796493  57.6496993   3.6401673  49.0176493
  57.7116993   3.7421673  49.7926493  60.2486993  15.6791673  42.3396493
  60.7946993  16.3581673  42.3936493  59.8986993  15.7611673  41.5446493
  60.2776993  15.7921673  42.2296493  58.4316993  13.9071673  45.7286493
  57.8076993  14.4891673  45.5466493  58.6796993  13.6211673  44.9426493
  58.3756993  13.9511673  45.5856493  60.0256993   8.6831673  35.6436493
  59.2206993   8.5061673  35.3586493  59.9926993   9.5341673  35.8356493
  59.9016993   8.7821673  35.6306493  55.9556993   4.7501673  45.7936493
  56.3956993   4.6471673  45.0476493  56.5006993   4.4371673  46.3986493
  56.1006993   4.6891673  45.7726493  61.0846993  15.5561673  51.6086493
  61.5626993  14.9561673  51.1926493  60.7336993  15.1131673  52.2736493
  61.1036993  15.4021673  51.6456493  61.1436993  10.7751673  50.6286493
  60.3486993  10.7111673  50.9796493  61.2146993  11.6221673  50.4336493
  61.0366993  10.8901673  50.6516493  56.9736993  16.9821673  45.9456493
  56.9846993  17.0411673  46.8156493  56.5486993  16.2351673  45.7956493
  56.9126993  16.8801673  46.0516493  55.1316993   2.8771673  39.1006493
  55.2576993   2.5481673  38.3026493  54.3196993   2.6281673  39.2996493
  55.0306993   2.7921673  39.0126493  61.4106993   9.3041673  41.7096493
  61.1126993   8.9891673  42.4666493  62.1056993   9.7771673  41.9446493
  61.4696993   9.3271673  41.8566493  61.6326993  13.4221673  49.7366493
  62.3196993  13.3081673  50.2616493  61.7666993  14.2131673  49.3926493
  61.7536993  13.5221673  49.7636493  53.7376993  16.4801673  51.3876493
  53.0836993  15.9111673  51.4856493  53.3626993  17.2531673  51.5386493
  53.5856993  16.5101673  51.4246493  62.2556993   7.8861673  53.3106493
  62.5786993   8.5721673  52.8786493  61.5516993   8.2091673  53.7126493
  62.1986993   8.0351673  53.3056493  62.0406993  11.3501673  47.1696493
  61.3466993  11.7521673  47.5126493  62.7176993  11.7831673  47.5086493
  62.0376993  11.4731673  47.2706493  55.1086993   4.8881673  49.5166493
  55.4836993   5.5071673  49.0296493  55.7826993   4.4141673  49.8016493
  55.2636993   4.9101673  49.4866493  52.8836993   3.3361673  48.7916493
  52.9606993   3.1671673  47.9386493  53.6296993   3.7421673  48.9886493
  53.0046993   3.3711673  48.6946493  62.3626993  12.9411673  40.3386493
  62.1576993  13.7741673  40.1796493  61.5876993  12.5591673  40.4606493
  62.2176993  13.0081673  40.3336493  52.2806993   8.5621673  49.0156493
  52.6006993   8.7811673  48.2346493  52.1806993   7.6971673  48.9606493
  52.3126993   8.4671673  48.8926493  53.7366993   4.4981673  35.6336493
  53.0646993   4.5121673  36.1896493  53.8316993   3.6501673  35.4496493
  53.6516993   4.3751673  35.6886493  57.7246993  13.2031673  36.7476493
  58.1656993  13.2831673  37.4956493  56.9196993  12.9871673  37.0056493
  57.6706993  13.1831673  36.8966493  57.0436993   7.8541673  50.4006493
  56.6476993   8.6281673  50.4756493  56.6376993   7.4811673  49.7246493
  56.9256993   7.9131673  50.3116493  55.0536993  12.2731673  37.3486493
  54.8096993  11.9661673  38.1286493  55.0206993  11.5701673  36.8326493
  55.0126993  12.1241673  37.3876493  57.8726993  10.5181673  36.0916493
  57.0546993  10.2501673  36.2316493  57.8446993  11.3701673  36.2766493
  57.7476993  10.6051673  36.1396493  59.0786993   5.9081673  51.4286493
  58.7566993   5.3321673  50.8586493  58.7196993   6.6631673  51.1826493
  58.9786993   5.9341673  51.3086493  57.5136993  16.2641673  51.6766493
  57.5546993  16.3901673  52.5396493  58.1646993  15.7041673  51.5206493
  57.6156993  16.2001673  51.7816493  55.1066993  14.6471673  53.0366493
  55.7016993  15.0781673  53.5086493  54.7426993  15.2711673  52.5476493
  55.1406993  14.8031673  53.0336493  53.3456993   4.2281673  42.4546493
  52.9776993   4.5301673  43.1856493  53.8796993   3.5991673  42.7386493
  53.3696993   4.1801673  42.6046493  53.0336993  12.6361673  49.9656493
  52.4596993  13.0521673  50.4746493  53.7666993  13.1011673  50.0606493
  53.0576993  12.7661673  50.0546493  54.8196993  15.9031673  38.7406493
  54.6746993  16.0591673  37.8946493  55.6856993  15.9821673  38.8186493
  54.9266993  15.9381673  38.6276493  58.9866993   8.3001673  38.4686493
  59.0866993   8.4391673  37.6136493  59.8046993   8.2401673  38.7646493
  59.1216993   8.3111673  38.3856493  55.5066993  14.7181673  45.2176493
  55.4276993  13.9081673  44.9016493  55.0626993  15.2051673  44.6456493
  55.4296993  14.6701673  45.0866493  61.1076993  10.8371673  37.7006493
  61.8246993  10.4901673  37.3446493  61.0736993  11.6371673  37.3526493
  61.2086993  10.9041673  37.5966493  53.0786993  16.9621673  48.7986493
  53.5716993  16.9061673  49.5166493  53.2666993  16.2291673  48.3636493
  53.1796993  16.8451673  48.8406493  62.3256993   6.3941673  26.6104083
  61.8016993   6.9901673  26.9734083  62.7226993   6.0261673  27.2944083
  62.3066993   6.4281673  26.7654083  52.1946993  10.5341673  22.0664083
  51.7536993  10.6521673  22.8094083  51.9116993   9.7591673  21.7814083
  52.0876993  10.4371673  22.1344083  51.9376993   4.3261673  18.5734083
  51.1596993   4.4881673  18.2134083  51.9766993   3.4551673  18.5954083
  51.8286993   4.2211673  18.5234083  55.0766993   9.5891673  17.2454083
  54.6846993   9.2181673  16.5594083  54.9966993   8.9911673  17.8744083
  55.0066993   9.4461673  17.2364083  54.7036993  11.2301673  21.1454083
  55.3116993  11.0601673  21.7484083  53.9526993  11.0901673  21.5664083
  54.6826993  11.1841673  21.2964083  53.5946993  14.3211673  17.2224083
  54.0616993  14.4051673  16.4904083  54.0496993  13.7431673  17.6914083
  53.7306993  14.2481673  17.1834083  52.1346993  13.2691673  28.3214083
  52.2636993  12.9891673  29.1374083  51.5246993  12.7281673  28.0124083
  52.0636993  13.1481673  28.3964083  58.7086993  10.7941673  33.3884083
  58.4726993  10.7911673  34.2284083  57.9606993  10.6461673  32.9644083
  58.5626993  10.7711673  33.4494083  53.5806993   7.7901673  22.5234083
  53.1186993   7.3981673  21.8964083  54.2806993   7.2771673  22.6154083
  53.6156993   7.6571673  22.4444083  58.0886993   3.4001673  27.8704083
  58.7666993   3.4181673  27.3214083  58.0436993   2.5641673  28.1154083
  58.1816993   3.2791673  27.8254083  58.6906993  13.9861673  30.6514083
  58.8286993  14.7461673  30.2444083  59.4816993  13.6211673  30.6784083
  58.8276993  14.0451673  30.5954083  55.5816993   5.8901673  22.5464083
  56.3986993   5.7031673  22.7894083  55.1046993   5.2761673  22.9424083
  55.6316993   5.7721673  22.6414083  59.7856993  11.8711673  25.1564083
  60.1336993  11.0721673  25.1864083  60.4506993  12.3751673  24.9014083
  59.9356993  11.8271673  25.1234083  59.8426993  11.3201673  21.3674083
  60.1736993  10.6761673  21.8534083  60.0826993  11.1091673  20.5564083
  59.9266993  11.1941673  21.3194083  61.8106993   5.4511673  32.7064083
  60.9626993   5.3521673  32.5284083  61.8396993   6.1961673  33.1604083
  61.6896993   5.5471673  32.7474083  52.0366993   5.5511673  25.5364083
  51.7806993   6.3821673  25.4614083  51.3726993   5.1681673  25.9534083
  51.9006993   5.6171673  25.5874083  51.9466993  15.2611673  23.4364083
  51.3546993  15.8191673  23.1234083  52.3726993  14.9921673  22.7244083
  51.9226993  15.3031673  23.2854083  57.7866993  13.1051673  20.9164083
  57.2076993  12.8301673  21.5084083  58.4106993  12.4961673  20.9414083
  57.7936993  12.9751673  21.0074083  62.0976993  15.7851673  20.4284083
  62.3116993  16.3121673  21.0904083  62.8646993  15.6111673  20.0494083
  62.2426993  15.8371673  20.4704083  58.3716993   2.5011673  35.3254083
  58.4886993   2.0471673  34.5894083  58.6596993   3.2991673  35.1224083
  58.4316993   2.5521673  35.1864083  53.4916993  13.9311673  21.3674083
  54.1476993  13.3561673  21.3824083  53.8806993  14.6801673  21.1464083
  53.6466993  13.9561673  21.3374083  54.3096993  12.4181673  24.8674083
  54.7326993  12.0621673  24.1934083  54.6336993  11.9961673  25.5594083
  54.4196993  12.3031673  24.8704083  57.5406993  15.2701673  24.1634083
  58.3846993  15.3741673  23.9684083  57.2436993  16.0881673  24.2314083
  57.6216993  15.4061673  24.1444083  61.3476993   4.6671673  22.2504083
  61.6346993   4.4351673  21.4604083  62.0796993   4.7461673  22.7194083
  61.4976993   4.6441673  22.2034083  62.0696993   5.0061673  17.3714083
  62.3506993   5.7941673  17.6204083  61.2936993   5.1711673  17.0084083
  61.9966993   5.1471673  17.3544083  56.5386993  16.4891673  29.9034083
  56.8306993  16.4221673  30.7234083  55.9126993  15.8841673  29.8584083
  56.4896993  16.3901673  30.0184083  51.4526993   2.6461673  31.8954083
  51.4486993   3.2331673  32.5414083  52.0466993   2.9581673  31.3384083
  51.5396993   2.7791673  31.9084083  60.9286993  13.1771673  17.1874083
  60.7476993  13.7221673  17.8444083  61.6946993  13.4671673  16.8864083
  61.0146993  13.3011673  17.2404083  54.5316993  14.6511673  29.0254083
  53.8336993  14.1431673  29.1514083  54.7916993  14.4461673  28.2174083
  54.4666993  14.5461673  28.9244083  61.6936993   3.4491673  19.5554083
  61.1856993   2.7871673  19.3014083  61.7456993   3.9531673  18.8454083
  61.6266993   3.4261673  19.4134083  62.2426993  16.1441673  29.9354083
  63.0106993  16.0641673  29.5294083  61.6596993  16.0231673  29.2974083
  62.2696993  16.1141673  29.7814083  60.2916993   2.7571673  23.9684083
  60.3656993   3.3251673  23.3104083  60.4126993   3.2491673  24.6784083
  60.3196993   2.9141673  23.9764083  55.8926993  13.5021673  31.5924083
  56.7336993  13.5651673  31.3704083  55.8556993  13.8991673  32.3684083
  56.0116993  13.5701673  31.6744083  57.8556993   9.0131673  26.3414083
  58.0276993   8.8031673  27.1704083  57.2006993   8.4791673  26.1254083
  57.7846993   8.9031673  26.4324083  58.6056993   8.9511673  28.9314083
  58.6586993   9.7981673  29.1334083  58.3206993   8.5811673  29.6684083
  58.5716993   9.0211673  29.0694083  51.4266993  13.3221673  35.1424083
  52.1826993  13.6711673  35.4004083  51.6036993  12.4691673  35.0854083
  51.5646993  13.2471673  35.1724083  55.3476993   2.3901673  23.9704083
  55.6196993   1.9601673  23.2624083  55.1716993   1.7541673  24.5414083
  55.3616993   2.2331673  23.9504083  55.1716993   9.8171673  23.5194083
  56.0226993   9.7371673  23.3464083  54.8146993   9.1351673  23.1074083
  55.2446993   9.7041673  23.4324083  53.9386993  16.5421673  24.7564083
  53.2656993  16.0441673  24.5114083  54.3416993  16.7271673  24.0054083
  53.8986993  16.4961673  24.6094083  53.4886993   3.4921673  27.0524083
  54.3316993   3.7121673  27.0094083  53.0996993   4.0651673  26.5214083
  53.5556993   3.6091673  26.9674083  57.5396993   9.8241673  21.7544083
  58.2526993  10.3191673  21.8444083  57.7616993   9.2571673  21.1284083
  57.6776993   9.8131673  21.6754083  51.6956993  11.4671673  25.0744083
  51.0286993  11.9551673  25.3504083  52.3756993  12.0121673  25.1034083
  51.6976993  11.6191673  25.1194083  59.3426993   5.1771673  35.1704083
  58.8586993   5.7541673  35.6124083  59.3146993   5.4721673  34.3494083
  59.2666993   5.3061673  35.1144083  51.7616993   8.1511673  20.1774083
  51.5766993   7.3121673  20.3294083  52.4206993   8.1151673  19.6074083
  51.8316993   8.0221673  20.1154083  62.0626993  13.5271673  24.0814083
  61.5396993  14.1611673  23.7884083  62.3726993  13.1631673  23.3524083
  62.0306993  13.5671673  23.9304083  51.9336993  12.3151673  19.7524083
  52.4856993  12.8841673  20.1164083  51.7016993  11.8001673  20.4174083
  51.9806993  12.3231673  19.9044083  56.1376993  11.3151673  26.8414083
  56.6046993  11.6041673  27.5194083  56.7096993  10.8371673  26.3874083
  56.2916993  11.2871673  26.8744083  51.7636993  10.7641673  17.3804083
  52.5196993  10.3321673  17.4384083  51.7786993  11.2961673  18.0714083
  51.8776993  10.7791673  17.4914083  52.7036993   8.9851673  25.3854083
  53.1346993   8.8561673  24.6384083  52.4986993   9.8331673  25.3594083
  52.7366993   9.0911673  25.2714083  59.0496993   2.5491673  19.0354083
  59.0476993   2.4321673  18.1704083  58.8686993   3.3971673  19.1274083
  59.0226993   2.6571673  18.9214083  56.7876993  12.5011673  23.6674083
  56.9136993  13.3441673  23.8544083  57.4556993  12.1021673  24.0634083
  56.9056993  12.5671673  23.7534083  54.9176993   5.9841673  33.5294083
  54.3816993   5.4781673  33.9974083  54.9376993   5.5941673  32.7494083
  54.8406993   5.8511673  33.4834083  55.4026993   5.3811673  18.6694083
  55.2746993   4.9331673  19.4074083  54.8206993   5.0391673  18.1174083
  55.2976993   5.2641673  18.6974083  55.5696993   7.2111673  25.2684083
  54.7886993   7.1521673  24.8854083  55.6416993   6.4591673  25.7054083
  55.4646993   7.0921673  25.2764083  55.9996993   6.9481673  28.7364083
  56.0246993   6.2731673  28.1854083  55.3536993   7.4441673  28.4244083
  55.9086993   6.9211673  28.6094083  60.0996993  15.7251673  28.1284083
  59.8226993  15.0841673  27.6054083  59.8916993  16.4511673  27.6904083
  60.0286993  15.7381673  27.9864083  53.7986993   8.3031673  34.2954083
  53.7616993   8.8041673  33.5814083  54.1296993   7.5511673  34.0004083
  53.8416993   8.2651673  34.1464083  59.6976993  13.3531673  33.7304083
  60.0516993  13.1751673  34.5074083  59.2616993  12.6241673  33.5314083
  59.6856993  13.2191673  33.8164083  60.6696993   4.1001673  26.3684083
  61.1496993   4.7991673  26.5764083  61.0426993   3.4531673  26.8194083
  60.7956993   4.1081673  26.4654083  62.8586993   7.2691673  18.6424083
  62.8506993   7.9911673  18.1524083  62.2196993   7.4041673  19.2194083
  62.7636993   7.3961673  18.6554083  57.7806993  15.8681673  20.3154083
  57.6336993  15.0921673  20.6864083  58.4696993  15.7211673  19.8004083
  57.8606993  15.7311673  20.2944083  60.0726993  15.3841673  18.7174083
  60.6946993  15.5471673  19.3074083  60.1086993  16.0751673  18.1854083
  60.1696993  15.5101673  18.7264083  54.5736993   7.9181673  19.5464083
  54.8976993   7.1391673  19.3244083  55.2196993   8.2861673  20.0014083
  54.7166993   7.8571673  19.5804083  61.2636993   7.2601673  20.9714083
  61.3226993   7.9101673  21.5504083  61.0746993   6.5641673  21.4624083
  61.2446993   7.2531673  21.1294083  55.7596993   1.7771673  17.4834083
  55.2486993   1.8301673  16.7774083  56.5436993   2.0171673  17.1874083
  55.7996993   1.8201673  17.3354083  60.4866993   9.3071673  25.4024083
  59.6396993   9.1131673  25.4834083  60.8106993   9.1421673  26.1954083
  60.4086993   9.2541673  25.5314083  57.2386993  16.0371673  16.2884083
  57.6776993  15.3401673  16.5764083  57.4456993  16.6611673  16.8614083
  57.3346993  16.0261673  16.4154083  54.3346993   9.0001673  27.7184083
  55.0566993   9.4881673  27.6814083  54.0646993   8.9701673  26.8894083
  54.4016993   9.0681673  27.5904083  57.5646993   4.1711673  24.4534083
  58.4106993   3.9811673  24.5514083  57.1946993   3.3941673  24.3154083
  57.6346993   4.0281673  24.4474083  52.3856993   5.5091673  21.1084083
  52.8746993   5.2171673  21.7694083  52.5146993   4.9161673  20.4814083
  52.4766993   5.3781673  21.1134083  56.9106993   6.9431673  16.5944083
  56.3006993   6.5381673  17.0684083  56.5246993   7.0611673  15.8214083
  56.7636993   6.9001673  16.5504083  53.7296993  10.0521673  31.9964083
  53.3086993   9.5341673  31.4354083  53.3776993  10.8381673  31.8534083
  53.6156993  10.0921673  31.8924083  58.3656993   5.4041673  19.3044083
  58.6376993   6.2301673  19.3714083  57.5026993   5.4791673  19.2084083
  58.2786993   5.5371673  19.2994083  58.4686993  11.8631673  28.6144083
  58.1706993  12.4551673  29.1814083  58.5236993  12.3051673  27.8654083
  58.4326993  12.0161673  28.5874083  56.4476993  10.8131673  32.0124083
  55.6416993  10.5231673  32.1794083  56.3586993  11.6811673  32.0184083
  56.3156993  10.8981673  32.0374083  60.9846993   8.2861673  28.1054083
  61.4606993   8.6601673  28.7334083  60.1616993   8.4201673  28.3644083
  60.9336993   8.3611673  28.2364083  57.6946993   3.8891673  30.8464083
  57.8556993   3.1451673  31.2734083  57.6496993   3.6401673  30.0114083
  57.7116993   3.7421673  30.7864083  60.2486993  15.6791673  23.3334083
  60.7946993  16.3581673  23.3874083  59.8986993  15.7611673  22.5384083
  60.2776993  15.7921673  23.2234083  58.4316993  13.9071673  26.7224083
  57.8076993  14.4891673  26.5404083  58.6796993  13.6211673  25.9364083
  58.3756993  13.9511673  26.5794083  60.0256993   8.6831673  16.6374083
  59.2206993   8.5061673  16.3524083  59.9926993   9.5341673  16.8294083
  59.9016993   8.7821673  16.6244083  55.9556993   4.7501673  26.7874083
  56.3956993   4.6471673  26.0414083  56.5006993   4.4371673  27.3924083
  56.1006993   4.6891673  26.7664083  61.0846993  15.5561673  32.6024083
  61.5626993  14.9561673  32.1864083  60.7336993  15.1131673  33.2674083
  61.1036993  15.4021673  32.6394083  61.1436993  10.7751673  31.6224083
  60.3486993  10.7111673  31.9734083  61.2146993  11.6221673  31.4274083
  61.0366993  10.8901673  31.6454083  56.9736993  16.9821673  26.9394083
  56.9846993  17.0411673  27.8094083  56.5486993  16.2351673  26.7894083
  56.9126993  16.8801673  27.0454083  55.1316993   2.8771673  20.0944083
  55.2576993   2.5481673  19.2964083  54.3196993   2.6281673  20.2934083
  55.0306993   2.7921673  20.0064083  61.4106993   9.3041673  22.7034083
  61.1126993   8.9891673  23.4604083  62.1056993   9.7771673  22.9384083
  61.4696993   9.3271673  22.8504083  61.6326993  13.4221673  30.7304083
  62.3196993  13.3081673  31.2554083  61.7666993  14.2131673  30.3864083
  61.7536993  13.5221673  30.7574083  53.7376993  16.4801673  32.3814083
  53.0836993  15.9111673  32.4794083  53.3626993  17.2531673  32.5324083
  53.5856993  16.5101673  32.4184083  62.2556993   7.8861673  34.3044083
  62.5786993   8.5721673  33.8724083  61.5516993   8.2091673  34.7064083
  62.1986993   8.0351673  34.2994083  62.0406993  11.3501673  28.1634083
  61.3466993  11.7521673  28.5064083  62.7176993  11.7831673  28.5024083
  62.0376993  11.4731673  28.2644083  55.1086993   4.8881673  30.5104083
  55.4836993   5.5071673  30.0234083  55.7826993   4.4141673  30.7954083
  55.2636993   4.9101673  30.4804083  52.8836993   3.3361673  29.7854083
  52.9606993   3.1671673  28.9324083  53.6296993   3.7421673  29.9824083
  53.0046993   3.3711673  29.6884083  62.3626993  12.9411673  21.3324083
  62.1576993  13.7741673  21.1734083  61.5876993  12.5591673  21.4544083
  62.2176993  13.0081673  21.3274083  52.2806993   8.5621673  30.0094083
  52.6006993   8.7811673  29.2284083  52.1806993   7.6971673  29.9544083
  52.3126993   8.4671673  29.8864083  53.7366993   4.4981673  16.6274083
  53.0646993   4.5121673  17.1834083  53.8316993   3.6501673  16.4434083
  53.6516993   4.3751673  16.6824083  57.7246993  13.2031673  17.7414083
  58.1656993  13.2831673  18.4894083  56.9196993  12.9871673  17.9994083
  57.6706993  13.1831673  17.8904083  57.0436993   7.8541673  31.3944083
  56.6476993   8.6281673  31.4694083  56.6376993   7.4811673  30.7184083
  56.9256993   7.9131673  31.3054083  55.0536993  12.2731673  18.3424083
  54.8096993  11.9661673  19.1224083  55.0206993  11.5701673  17.8264083
  55.0126993  12.1241673  18.3814083  57.8726993  10.5181673  17.0854083
  57.0546993  10.2501673  17.2254083  57.8446993  11.3701673  17.2704083
  57.7476993  10.6051673  17.1334083  59.0786993   5.9081673  32.4224083
  58.7566993   5.3321673  31.8524083  58.7196993   6.6631673  32.1764083
  58.9786993   5.9341673  32.3024083  57.5136993  16.2641673  32.6704083
  57.5546993  16.3901673  33.5334083  58.1646993  15.7041673  32.5144083
  57.6156993  16.2001673  32.7754083  55.1066993  14.6471673  34.0304083
  55.7016993  15.0781673  34.5024083  54.7426993  15.2711673  33.5414083
  55.1406993  14.8031673  34.0274083  53.3456993   4.2281673  23.4484083
  52.9776993   4.5301673  24.1794083  53.8796993   3.5991673  23.7324083
  53.3696993   4.1801673  23.5984083  53.0336993  12.6361673  30.9594083
  52.4596993  13.0521673  31.4684083  53.7666993  13.1011673  31.0544083
  53.0576993  12.7661673  31.0484083  54.8196993  15.9031673  19.7344083
  54.6746993  16.0591673  18.8884083  55.6856993  15.9821673  19.8124083
  54.9266993  15.9381673  19.6214083  58.9866993   8.3001673  19.4624083
  59.0866993   8.4391673  18.6074083  59.8046993   8.2401673  19.7584083
  59.1216993   8.3111673  19.3794083  55.5066993  14.7181673  26.2114083
  55.4276993  13.9081673  25.8954083  55.0626993  15.2051673  25.6394083
  55.4296993  14.6701673  26.0804083  61.1076993  10.8371673  18.6944083
  61.8246993  10.4901673  18.3384083  61.0736993  11.6371673  18.3464083
  61.2086993  10.9041673  18.5904083  53.0786993  16.9621673  29.7924083
  53.5716993  16.9061673  30.5104083  53.2666993  16.2291673  29.3574083
  53.1796993  16.8451673  29.8344083  62.3256993   6.3941673   7.6041673
  61.8016993   6.9901673   7.9671673  62.7226993   6.0261673   8.2881673
  62.3066993   6.4281673   7.7591673  52.1946993  10.5341673   3.0601673
  51.7536993  10.6521673   3.8031673  51.9116993   9.7591673   2.7751673
  52.0876993  10.4371673   3.1281673  54.7036993  11.2301673   2.1391673
  55.3116993  11.0601673   2.7421673  53.9526993  11.0901673   2.5601673
  54.6826993  11.1841673   2.2901673  52.1346993  13.2691673   9.3151673
  52.2636993  12.9891673  10.1311673  51.5246993  12.7281673   9.0061673
  52.0636993  13.1481673   9.3901673  58.7086993  10.7941673  14.3821673
  58.4726993  10.7911673  15.2221673  57.9606993  10.6461673  13.9581673
  58.5626993  10.7711673  14.4431673  53.5806993   7.7901673   3.5171673
  53.1186993   7.3981673   2.8901673  54.2806993   7.2771673   3.6091673
  53.6156993   7.6571673   3.4381673  58.0886993   3.4001673   8.8641673
  58.7666993   3.4181673   8.3151673  58.0436993   2.5641673   9.1091673
  58.1816993   3.2791673   8.8191673  58.6906993  13.9861673  11.6451673
  58.8286993  14.7461673  11.2381673  59.4816993  13.6211673  11.6721673
  58.8276993  14.0451673  11.5891673  55.5816993   5.8901673   3.5401673
  56.3986993   5.7031673   3.7831673  55.1046993   5.2761673   3.9361673
  55.6316993   5.7721673   3.6351673  59.7856993  11.8711673   6.1501673
  60.1336993  11.0721673   6.1801673  60.4506993  12.3751673   5.8951673
  59.9356993  11.8271673   6.1171673  59.8426993  11.3201673   2.3611673
  60.1736993  10.6761673   2.8471673  60.0826993  11.1091673   1.5501673
  59.9266993  11.1941673   2.3131673  61.8106993   5.4511673  13.7001673
  60.9626993   5.3521673  13.5221673  61.8396993   6.1961673  14.1541673
  61.6896993   5.5471673  13.7411673  52.0366993   5.5511673   6.5301673
  51.7806993   6.3821673   6.4551673  51.3726993   5.1681673   6.9471673
  51.9006993   5.6171673   6.5811673  51.9466993  15.2611673   4.4301673
  51.3546993  15.8191673   4.1171673  52.3726993  14.9921673   3.7181673
  51.9226993  15.3031673   4.2791673  57.7866993  13.1051673   1.9101673
  57.2076993  12.8301673   2.5021673  58.4106993  12.4961673   1.9351673
  57.7936993  12.9751673   2.0011673  58.3716993   2.5011673  16.3191673
  58.4886993   2.0471673  15.5831673  58.6596993   3.2991673  16.1161673
  58.4316993   2.5521673  16.1801673  53.4916993  13.9311673   2.3611673
  54.1476993  13.3561673   2.3761673  53.8806993  14.6801673   2.1401673
  53.6466993  13.9561673   2.3311673  54.3096993  12.4181673   5.8611673
  54.7326993  12.0621673   5.1871673  54.6336993  11.9961673   6.5531673
  54.4196993  12.3031673   5.8641673  57.5406993  15.2701673   5.1571673
  58.3846993  15.3741673   4.9621673  57.2436993  16.0881673   5.2251673
  57.6216993  15.4061673   5.1381673  61.3476993   4.6671673   3.2441673
  61.6346993   4.4351673   2.4541673  62.0796993   4.7461673   3.7131673
  61.4976993   4.6441673   3.1971673  56.5386993  16.4891673  10.8971673
  56.8306993  16.4221673  11.7171673  55.9126993  15.8841673  10.8521673
  56.4896993  16.3901673  11.0121673  51.4526993   2.6461673  12.8891673
  51.4486993   3.2331673  13.5351673  52.0466993   2.9581673  12.3321673
  51.5396993   2.7791673  12.9021673  54.5316993  14.6511673  10.0191673
  53.8336993  14.1431673  10.1451673  54.7916993  14.4461673   9.2111673
  54.4666993  14.5461673   9.9181673  62.2426993  16.1441673  10.9291673
  63.0106993  16.0641673  10.5231673  61.6596993  16.0231673  10.2911673
  62.2696993  16.1141673  10.7751673  60.2916993   2.7571673   4.9621673
  60.3656993   3.3251673   4.3041673  60.4126993   3.2491673   5.6721673
  60.3196993   2.9141673   4.9701673  55.8926993  13.5021673  12.5861673
  56.7336993  13.5651673  12.3641673  55.8556993  13.8991673  13.3621673
  56.0116993  13.5701673  12.6681673  57.8556993   9.0131673   7.3351673
  58.0276993   8.8031673   8.1641673  57.2006993   8.4791673   7.1191673
  57.7846993   8.9031673   7.4261673  58.6056993   8.9511673   9.9251673
  58.6586993   9.7981673  10.1271673  58.3206993   8.5811673  10.6621673
  58.5716993   9.0211673  10.0631673  51.4266993  13.3221673  16.1361673
  52.1826993  13.6711673  16.3941673  51.6036993  12.4691673  16.0791673
  51.5646993  13.2471673  16.1661673  55.3476993   2.3901673   4.9641673
  55.6196993   1.9601673   4.2561673  55.1716993   1.7541673   5.5351673
  55.3616993   2.2331673   4.9441673  55.1716993   9.8171673   4.5131673
  56.0226993   9.7371673   4.3401673  54.8146993   9.1351673   4.1011673
  55.2446993   9.7041673   4.4261673  53.9386993  16.5421673   5.7501673
  53.2656993  16.0441673   5.5051673  54.3416993  16.7271673   4.9991673
  53.8986993  16.4961673   5.6031673  53.4886993   3.4921673   8.0461673
  54.3316993   3.7121673   8.0031673  53.0996993   4.0651673   7.5151673
  53.5556993   3.6091673   7.9611673  57.5396993   9.8241673   2.7481673
  58.2526993  10.3191673   2.8381673  57.7616993   9.2571673   2.1221673
  57.6776993   9.8131673   2.6691673  51.6956993  11.4671673   6.0681673
  51.0286993  11.9551673   6.3441673  52.3756993  12.0121673   6.0971673
  51.6976993  11.6191673   6.1131673  59.3426993   5.1771673  16.1641673
  58.8586993   5.7541673  16.6061673  59.3146993   5.4721673  15.3431673
  59.2666993   5.3061673  16.1081673  62.0626993  13.5271673   5.0751673
  61.5396993  14.1611673   4.7821673  62.3726993  13.1631673   4.3461673
  62.0306993  13.5671673   4.9241673  56.1376993  11.3151673   7.8351673
  56.6046993  11.6041673   8.5131673  56.7096993  10.8371673   7.3811673
  56.2916993  11.2871673   7.8681673  52.7036993   8.9851673   6.3791673
  53.1346993   8.8561673   5.6321673  52.4986993   9.8331673   6.3531673
  52.7366993   9.0911673   6.2651673  56.7876993  12.5011673   4.6611673
  56.9136993  13.3441673   4.8481673  57.4556993  12.1021673   5.0571673
  56.9056993  12.5671673   4.7471673  54.9176993   5.9841673  14.5231673
  54.3816993   5.4781673  14.9911673  54.9376993   5.5941673  13.7431673
  54.8406993   5.8511673  14.4771673  55.5696993   7.2111673   6.2621673
  54.7886993   7.1521673   5.8791673  55.6416993   6.4591673   6.6991673
  55.4646993   7.0921673   6.2701673  55.9996993   6.9481673   9.7301673
  56.0246993   6.2731673   9.1791673  55.3536993   7.4441673   9.4181673
  55.9086993   6.9211673   9.6031673  60.0996993  15.7251673   9.1221673
  59.8226993  15.0841673   8.5991673  59.8916993  16.4511673   8.6841673
  60.0286993  15.7381673   8.9801673  53.7986993   8.3031673  15.2891673
  53.7616993   8.8041673  14.5751673  54.1296993   7.5511673  14.9941673
  53.8416993   8.2651673  15.1401673  59.6976993  13.3531673  14.7241673
  60.0516993  13.1751673  15.5011673  59.2616993  12.6241673  14.5251673
  59.6856993  13.2191673  14.8101673  60.6696993   4.1001673   7.3621673
  61.1496993   4.7991673   7.5701673  61.0426993   3.4531673   7.8131673
  60.7956993   4.1081673   7.4591673  61.2636993   7.2601673   1.9651673
  61.3226993   7.9101673   2.5441673  61.0746993   6.5641673   2.4561673
  61.2446993   7.2531673   2.1231673  60.4866993   9.3071673   6.3961673
  59.6396993   9.1131673   6.4771673  60.8106993   9.1421673   7.1891673
  60.4086993   9.2541673   6.5251673  54.3346993   9.0001673   8.7121673
  55.0566993   9.4881673   8.6751673  54.0646993   8.9701673   7.8831673
  54.4016993   9.0681673   8.5841673  57.5646993   4.1711673   5.4471673
  58.4106993   3.9811673   5.5451673  57.1946993   3.3941673   5.3091673
  57.6346993   4.0281673   5.4411673  53.7296993  10.0521673  12.9901673
  53.3086993   9.5341673  12.4291673  53.3776993  10.8381673  12.8471673
  53.6156993  10.0921673  12.8861673  58.4686993  11.8631673   9.6081673
  58.1706993  12.4551673  10.1751673  58.5236993  12.3051673   8.8591673
  58.4326993  12.0161673   9.5811673  56.4476993  10.8131673  13.0061673
  55.6416993  10.5231673  13.1731673  56.3586993  11.6811673  13.0121673
  56.3156993  10.8981673  13.0311673  60.9846993   8.2861673   9.0991673
  61.4606993   8.6601673   9.7271673  60.1616993   8.4201673   9.3581673
  60.9336993   8.3611673   9.2301673  57.6946993   3.8891673  11.8401673
  57.8556993   3.1451673  12.2671673  57.6496993   3.6401673  11.0051673
  57.7116993   3.7421673  11.7801673  60.2486993  15.6791673   4.3271673
  60.7946993  16.3581673   4.3811673  59.8986993  15.7611673   3.5321673
  60.2776993  15.7921673   4.2171673  58.4316993  13.9071673   7.7161673
  57.8076993  14.4891673   7.5341673  58.6796993  13.6211673   6.9301673
  58.3756993  13.9511673   7.5731673  55.9556993   4.7501673   7.7811673
  56.3956993   4.6471673   7.0351673  56.5006993   4.4371673   8.3861673
  56.1006993   4.6891673   7.7601673  61.0846993  15.5561673  13.5961673
  61.5626993  14.9561673  13.1801673  60.7336993  15.1131673  14.2611673
  61.1036993  15.4021673  13.6331673  61.1436993  10.7751673  12.6161673
  60.3486993  10.7111673  12.9671673  61.2146993  11.6221673  12.4211673
  61.0366993  10.8901673  12.6391673  56.9736993  16.9821673   7.9331673
  56.9846993  17.0411673   8.8031673  56.5486993  16.2351673   7.7831673
  56.9126993  16.8801673   8.0391673  61.4106993   9.3041673   3.6971673
  61.1126993   8.9891673   4.4541673  62.1056993   9.7771673   3.9321673
  61.4696993   9.3271673   3.8441673  61.6326993  13.4221673  11.7241673
  62.3196993  13.3081673  12.2491673  61.7666993  14.2131673  11.3801673
  61.7536993  13.5221673  11.7511673  53.7376993  16.4801673  13.3751673
  53.0836993  15.9111673  13.4731673  53.3626993  17.2531673  13.5261673
  53.5856993  16.5101673  13.4121673  62.2556993   7.8861673  15.2981673
  62.5786993   8.5721673  14.8661673  61.5516993   8.2091673  15.7001673
  62.1986993   8.0351673  15.2931673  62.0406993  11.3501673   9.1571673
  61.3466993  11.7521673   9.5001673  62.7176993  11.7831673   9.4961673
  62.0376993  11.4731673   9.2581673  55.1086993   4.8881673  11.5041673
  55.4836993   5.5071673  11.0171673  55.7826993   4.4141673  11.7891673
  55.2636993   4.9101673  11.4741673  52.8836993   3.3361673  10.7791673
  52.9606993   3.1671673   9.9261673  53.6296993   3.7421673  10.9761673
  53.0046993   3.3711673  10.6821673  62.3626993  12.9411673   2.3261673
  62.1576993  13.7741673   2.1671673  61.5876993  12.5591673   2.4481673
  62.2176993  13.0081673   2.3211673  52.2806993   8.5621673  11.0031673
  52.6006993   8.7811673  10.2221673  52.1806993   7.6971673  10.9481673
  52.3126993   8.4671673  10.8801673  57.0436993   7.8541673  12.3881673
  56.6476993   8.6281673  12.4631673  56.6376993   7.4811673  11.7121673
  56.9256993   7.9131673  12.2991673  59.0786993   5.9081673  13.4161673
  58.7566993   5.3321673  12.8461673  58.7196993   6.6631673  13.1701673
  58.9786993   5.9341673  13.2961673  57.5136993  16.2641673  13.6641673
  57.5546993  16.3901673  14.5271673  58.1646993  15.7041673  13.5081673
  57.6156993  16.2001673  13.7691673  55.1066993  14.6471673  15.0241673
  55.7016993  15.0781673  15.4961673  54.7426993  15.2711673  14.5351673
  55.1406993  14.8031673  15.0211673  53.3456993   4.2281673   4.4421673
  52.9776993   4.5301673   5.1731673  53.8796993   3.5991673   4.7261673
  53.3696993   4.1801673   4.5921673  53.0336993  12.6361673  11.9531673
  52.4596993  13.0521673  12.4621673  53.7666993  13.1011673  12.0481673
  53.0576993  12.7661673  12.0421673  55.5066993  14.7181673   7.2051673
  55.4276993  13.9081673   6.8891673  55.0626993  15.2051673   6.6331673
  55.4296993  14.6701673   7.0741673  53.0786993  16.9621673  10.7861673
  53.5716993  16.9061673  11.5041673  53.2666993  16.2291673  10.3511673
  53.1796993  16.8451673  10.8281673  43.6518553  54.9124913  78.9581313
  43.4068553  55.4004913  78.2781313  44.5148553  54.8394913  78.8581313
  43.7428553  54.9734913  78.8431313  43.4608553  61.8284913  83.6291313
  42.9368553  62.4244913  83.9921313  43.8578553  61.4604913  84.3131313
  43.4418553  61.8624913  83.7841313  33.3298553  65.9684913  79.0851313
  32.8888553  66.0864913  79.8281313  33.0468553  65.1934913  78.8001313
  33.2228553  65.8714913  79.1531313  49.6048553  69.2694913  76.6001313
  50.3058553  68.7504913  76.5961313  49.0178553  68.8244913  76.1311313
  49.6218553  69.1264913  76.5301313  33.0728553  59.7604913  75.5921313
  32.2948553  59.9224913  75.2321313  33.1118553  58.8894913  75.6141313
  32.9638553  59.6554913  75.5421313  36.2118553  65.0234913  74.2641313
  35.8198553  64.6524913  73.5781313  36.1318553  64.4254913  74.8931313
  36.1418553  64.8804913  74.2551313  46.1318553  62.8954913  80.3051313
  46.2118553  62.8994913  79.4361313  45.5478553  62.2634913  80.4541313
  46.0568553  62.8024913  80.1991313  35.8388553  66.6644913  78.1641313
  36.4468553  66.4944913  78.7671313  35.0878553  66.5244913  78.5851313
  35.8178553  66.6184913  78.3151313  40.1208553  55.9994913  78.1131313
  40.0508553  56.6764913  77.5671313  40.8618553  55.6114913  77.8641313
  40.2198553  56.0424913  77.9951313  33.2698553  68.7034913  85.3401313
  33.3988553  68.4234913  86.1561313  32.6598553  68.1624913  85.0311313
  33.1988553  68.5824913  85.4151313  34.7158553  63.2244913  79.5421313
  34.2538553  62.8324913  78.9151313  35.4158553  62.7114913  79.6341313
  34.7508553  63.0914913  79.4631313  39.2238553  58.8344913  84.8891313
  39.9018553  58.8524913  84.3401313  39.1788553  57.9984913  85.1341313
  39.3168553  58.7134913  84.8441313  36.7168553  61.3244913  79.5651313
  37.5338553  61.1374913  79.8081313  36.2398553  60.7104913  79.9611313
  36.7668553  61.2064913  79.6601313  40.9208553  67.3054913  82.1751313
  41.2688553  66.5064913  82.2051313  41.5858553  67.8094913  81.9201313
  41.0708553  67.2614913  82.1421313  40.9778553  66.7544913  78.3861313
  41.3088553  66.1104913  78.8721313  41.2178553  66.5434913  77.5751313
  41.0618553  66.6284913  78.3381313  37.3138553  56.4184913  78.8311313
  37.0178553  56.9194913  78.1811313  38.1808553  56.4964913  78.7741313
  37.3978553  56.5044913  78.7271313  40.2928553  55.5604913  81.0541313
  40.3658553  56.4204913  81.1831313  40.2548553  55.4854913  80.1861313
  40.2978553  55.6764913  80.9451313  44.9658553  58.4864913  73.3531313
  44.5158553  59.1674913  73.6601313  45.0798553  57.9824913  74.0561313
  44.9168553  58.5124913  73.5021313  33.1718553  60.9854913  82.5551313
  32.9158553  61.8164913  82.4801313  32.5078553  60.6024913  82.9721313
  33.0358553  61.0514913  82.6061313  38.9218553  68.5394913  77.9351313
  38.3428553  68.2644913  78.5271313  39.5458553  67.9304913  77.9601313
  38.9288553  68.4094913  78.0261313  36.2008553  55.8024913  83.0461313
  35.6798553  55.1744913  82.7381313  36.7918553  55.3654913  83.5171313
  36.2118553  55.6444913  83.0701313  50.3598553  58.4594913  79.6481313
  50.0138553  59.1374913  80.0741313  49.7238553  57.8614913  79.6641313
  50.2148553  58.4714913  79.7131313  35.4448553  67.8524913  81.8861313
  35.8678553  67.4964913  81.2121313  35.7688553  67.4304913  82.5781313
  35.5548553  67.7374913  81.8891313  42.4828553  60.1014913  79.2691313
  42.7698553  59.8694913  78.4791313  43.2148553  60.1804913  79.7381313
  42.6328553  60.0784913  79.2221313  43.2048553  60.4404913  74.3901313
  43.4858553  61.2284913  74.6391313  42.4288553  60.6054913  74.0271313
  43.1318553  60.5814913  74.3731313  50.0348553  56.7824913  85.0171313
  50.7918553  56.8544913  84.5891313  50.0978553  56.0094913  85.4161313
  50.1558553  56.6794913  85.0121313  42.0638553  68.6114913  74.2061313
  41.8828553  69.1564913  74.8631313  42.8298553  68.9014913  73.9051313
  42.1498553  68.7354913  74.2591313  45.5708553  56.5074913  75.2601313
  46.1108553  55.8254913  75.3361313  45.6328553  56.9054913  76.0341313
  45.6598553  56.4654913  75.3861313  33.5248553  57.6754913  77.8291313
  33.4108553  56.8114913  77.8601313  33.0498553  57.9694913  78.4991313
  33.4378553  57.5914913  77.9321313  42.8288553  58.8834913  76.5741313
  42.3208553  58.2214913  76.3201313  42.8808553  59.3874913  75.8641313
  42.7618553  58.8604913  76.4321313  42.8288553  55.8244913  76.4651313
  42.3738553  55.4224913  75.8391313  43.6018553  55.9794913  76.0901313
  42.8758553  55.7884913  76.3171313  41.4268553  58.1914913  80.9871313
  41.5008553  58.7594913  80.3291313  41.5478553  58.6834913  81.6971313
  41.4548553  58.3484913  80.9951313  46.6518553  68.0264913  79.3991313
  47.3528553  67.5444913  79.5881313  45.9918553  67.4574913  79.4441313
  46.6578553  67.8714913  79.4331313  36.0348553  54.0144913  79.3351313
  36.5708553  54.7024913  79.3251313  36.0378553  53.7404913  78.5071313
  36.1138553  54.0754913  79.2111313  38.9908553  64.4474913  83.3601313
  39.1628553  64.2374913  84.1891313  38.3358553  63.9134913  83.1441313
  38.9198553  64.3374913  83.4511313  45.2188553  58.3614913  86.8751313
  45.1238553  58.6804913  87.6811313  44.6258553  57.7224913  86.8371313
  45.1168553  58.3134913  86.9891313  39.7408553  64.3854913  85.9501313
  39.7938553  65.2324913  86.1521313  39.4558553  64.0154913  86.6871313
  39.7068553  64.4554913  86.0881313  45.9178553  65.0804913  85.0801313
  45.4038553  64.6684913  85.6511313  45.7918553  65.9244913  85.2611313
  45.8238553  65.1444913  85.1911313  46.4748553  54.3054913  79.7111313
  46.5238553  53.9874913  80.5221313  46.7978553  53.6614913  79.2181313
  46.5298553  54.1634913  79.7581313  36.4828553  57.8244913  80.9891313
  36.7548553  57.3944913  80.2811313  36.3068553  57.1884913  81.5601313
  36.4968553  57.6674913  80.9691313  49.1708553  65.5194913  75.2071313
  49.2898553  65.2324913  76.0221313  49.9778553  65.5404913  74.8771313
  49.3068553  65.4804913  75.2791313  36.3068553  65.2514913  80.5381313
  37.1578553  65.1714913  80.3651313  35.9498553  64.5694913  80.1261313
  36.3798553  65.1384913  80.4511313  34.6238553  58.9264913  84.0711313
  35.4668553  59.1464913  84.0281313  34.2348553  59.4994913  83.5401313
  34.6908553  59.0434913  83.9861313  47.0658553  62.0564913  74.7921313
  46.8458553  62.7874913  74.3701313  46.6178553  62.1074913  75.5391313
  46.9668553  62.1714913  74.8401313  38.6748553  65.2584913  78.7731313
  39.3878553  65.7534913  78.8631313  38.8968553  64.6914913  78.1471313
  38.8128553  65.2474913  78.6941313  51.2528553  56.9174913  74.2451313
  50.5908553  56.3494913  74.2681313  51.0598553  57.4294913  73.5651313
  51.1268553  56.9094913  74.1481313  32.8308553  66.9014913  82.0931313
  32.1638553  67.3894913  82.3691313  33.5108553  67.4464913  82.1221313
  32.8328553  67.0534913  82.1381313  51.5758553  61.2954913  86.8011313
  51.7908553  60.4954913  86.5251313  50.7258553  61.3554913  86.6121313
  51.4818553  61.1864913  86.7321313  32.8968553  63.5854913  77.1961313
  32.7118553  62.7464913  77.3481313  33.5558553  63.5494913  76.6261313
  32.9668553  63.4564913  77.1341313  49.2548553  56.4754913  76.5241313
  50.0008553  56.0684913  76.7231313  49.5178553  57.1904913  76.0991313
  49.4038553  56.5214913  76.4911313  43.1978553  68.9614913  81.1001313
  42.6748553  69.5954913  80.8071313  43.5078553  68.5974913  80.3711313
  43.1658553  69.0014913  80.9491313  33.0688553  67.7494913  76.7711313
  33.6208553  68.3184913  77.1351313  32.8368553  67.2344913  77.4361313
  33.1158553  67.7574913  76.9231313  37.2728553  66.7494913  83.8601313
  37.7398553  67.0384913  84.5381313  37.8448553  66.2714913  83.4061313
  37.4268553  66.7214913  83.8931313  45.7088553  58.7634913  81.5971313
  46.0528553  58.9154913  82.3841313  45.2558553  58.0254913  81.7101313
  45.6928553  58.6764913  81.7301313  32.8988553  66.1984913  74.3991313
  33.6548553  65.7664913  74.4571313  32.9138553  66.7304913  75.0901313
  33.0128553  66.2134913  74.5101313  33.8388553  64.4194913  82.4041313
  34.2698553  64.2904913  81.6571313  33.6338553  65.2674913  82.3781313
  33.8718553  64.5254913  82.2901313  40.1848553  57.9834913  76.0541313
  40.1828553  57.8664913  75.1891313  40.0038553  58.8314913  76.1461313
  40.1578553  58.0914913  75.9401313  37.9228553  67.9354913  80.6861313
  38.0488553  68.7784913  80.8731313  38.5908553  67.5364913  81.0821313
  38.0408553  68.0014913  80.7721313  36.5378553  60.8154913  75.6881313
  36.4098553  60.3674913  76.4261313  35.9558553  60.4734913  75.1361313
  36.4328553  60.6984913  75.7161313  36.7048553  62.6454913  82.2871313
  35.9238553  62.5864913  81.9041313  36.7768553  61.8934913  82.7241313
  36.5998553  62.5264913  82.2951313  37.1348553  62.3824913  85.7551313
  37.1598553  61.7074913  85.2041313  36.4888553  62.8784913  85.4431313
  37.0438553  62.3554913  85.6281313  47.0298553  60.0954913  84.1511313
  46.3678553  60.4234913  84.6141313  47.2168553  60.7294913  83.5821313
  46.9598553  60.2374913  84.1351313  45.2228553  58.0644913  77.6621313
  45.7128553  58.7814913  77.5851313  44.4328553  58.3254913  77.3991313
  45.1788553  58.2084913  77.6121313  41.8048553  59.5344913  83.3871313
  42.2848553  60.2334913  83.5951313  42.1778553  58.8874913  83.8381313
  41.9308553  59.5424913  83.4841313  43.9938553  62.7034913  75.6611313
  43.9858553  63.4254913  75.1711313  43.3548553  62.8384913  76.2381313
  43.8988553  62.8304913  75.6741313  48.9658553  66.5734913  79.6421313
  49.3218553  66.2234913  80.3571313  48.9578553  65.9124913  79.0721313
  49.0178553  66.4234913  79.6631313  45.0238553  66.4904913  82.8861313
  44.2268553  66.7144913  83.1601313  45.2818553  65.8964913  83.4711313
  44.9438553  66.4354913  83.0131313  38.5868553  55.0454913  75.3221313
  38.6838553  54.9384913  76.1831313  37.8788553  55.5514913  75.2571313
  38.4968553  55.1044913  75.4401313  48.2838553  64.4884913  87.7321313
  48.3388553  64.6134913  86.8701313  49.0368553  64.8084913  88.0341313
  48.4028553  64.5534913  87.6491313  35.7088553  63.3524913  76.5651313
  36.0328553  62.5734913  76.3431313  36.3548553  63.7204913  77.0201313
  35.8518553  63.2914913  76.5991313  44.0148553  64.2944913  87.3321313
  43.8598553  64.9044913  87.9361313  44.5488553  63.7364913  87.7381313
  44.0708553  64.3024913  87.4811313  32.7058553  55.0134913  77.5331313
  32.8348553  54.3054913  77.0411313  32.3388553  54.6954913  78.2581313
  32.6708553  54.8614913  77.5681313  42.3988553  62.6944913  77.9901313
  42.4578553  63.3444913  78.5691313  42.2098553  61.9984913  78.4811313
  42.3798553  62.6874913  78.1481313  47.6248553  67.0234913  83.8591313
  47.1458553  67.3214913  83.1931313  47.2688553  66.2474913  84.0371313
  47.5018553  66.9524913  83.7871313  36.8948553  57.2114913  74.5021313
  36.3838553  57.2644913  73.7961313  37.6788553  57.4514913  74.2061313
  36.9348553  57.2544913  74.3541313  41.6218553  64.7414913  82.4211313
  40.7748553  64.5474913  82.5021313  41.9458553  64.5764913  83.2141313
  41.5438553  64.6884913  82.5501313  35.4698553  64.4344913  84.7371313
  36.1918553  64.9224913  84.7001313  35.1998553  64.4044913  83.9081313
  35.5368553  64.5024913  84.6091313  38.6998553  59.6054913  81.4721313
  39.5458553  59.4154913  81.5701313  38.3298553  58.8284913  81.3341313
  38.7698553  59.4624913  81.4661313  33.5208553  60.9434913  78.1271313
  34.0098553  60.6514913  78.7881313  33.6498553  60.3504913  77.5001313
  33.6118553  60.8124913  78.1321313  48.5558553  63.9654913  84.9781313
  48.5488553  63.1894913  85.3761313  47.7148553  64.1994913  84.9711313
  48.4308553  63.8854913  85.0361313  38.0458553  62.3774913  73.6131313
  37.4358553  61.9724913  74.0871313  37.6598553  62.4954913  72.8401313
  37.8988553  62.3344913  73.5691313  49.8118553  64.0364913  82.4151313
  49.5258553  64.4374913  83.1351313  50.6718553  63.9744913  82.5421313
  49.8968553  64.0864913  82.5401313  39.5008553  60.8384913  76.3231313
  39.7728553  61.6644913  76.3901313  38.6378553  60.9134913  76.2271313
  39.4138553  60.9714913  76.3181313  32.9808553  56.8084913  82.8591313
  33.0248553  57.1524913  82.0581313  33.7358553  57.0454913  83.2261313
  33.0988553  56.8944913  82.7951313  47.5478553  68.2724913  74.9261313
  47.8818553  67.4664913  74.9611313  46.7928553  68.2004913  75.3561313
  47.4858553  68.1424913  74.9951313  48.0298553  60.1064913  80.5851313
  47.2848553  59.7834913  80.9031313  48.0318553  60.9324913  80.8651313
  47.9198553  60.1804913  80.6731313  44.9218553  66.1474913  74.3291313
  45.6058553  65.6334913  74.1601313  44.5048553  66.1934913  73.5641313
  44.9608553  66.0784913  74.1911313  39.6038553  67.2974913  85.6331313
  39.3058553  67.8894913  86.2001313  39.6588553  67.7394913  84.8841313
  39.5678553  67.4504913  85.6061313  46.9418553  56.4364913  88.0461313
  47.6858553  56.8884913  87.9831313  46.3758553  56.9064913  87.5771313
  46.9688553  56.5734913  87.9681313  42.1198553  63.7204913  85.1241313
  42.5958553  64.0944913  85.7521313  41.2968553  63.8544913  85.3831313
  42.0688553  63.7954913  85.2551313  48.2268553  54.4164913  85.7161313
  47.9468553  55.2414913  85.6721313  48.9428553  54.4694913  86.2121313
  48.2918553  54.5464913  85.7831313  40.5818553  55.1314913  87.7451313
  41.2868553  55.4514913  87.3431313  40.8228553  54.3244913  87.9721313
  40.7208553  55.0594913  87.7191313  49.6478553  60.6714913  74.5731313
  50.0258553  61.3484913  74.1731313  48.8058553  60.8954913  74.6041313
  49.5788553  60.8044913  74.5181313  41.1608553  64.1174913  73.6561313
  40.3558553  63.9404913  73.3711313  41.1278553  64.9684913  73.8481313
  41.0368553  64.2164913  73.6431313  37.0908553  60.1844913  83.8061313
  37.5308553  60.0814913  83.0601313  37.6358553  59.8714913  84.4111313
  37.2358553  60.1234913  83.7851313  44.7948553  60.8234913  85.6961313
  45.0968553  61.2434913  86.3991313  44.8308553  59.9834913  85.9281313
  44.8448553  60.7614913  85.8341313  47.3428553  60.2704913  77.9481313
  47.5498553  60.0694913  78.7721313  48.0988553  60.5384913  77.6061313
  47.4848553  60.2804913  78.0191313  40.6378553  55.1694913  83.8531313
  39.8118553  55.0204913  84.0901313  40.5978553  55.2044913  82.9821313
  40.5098553  55.1524913  83.7591313  48.3648553  56.3534913  79.4221313
  47.6508553  55.8824913  79.5931313  48.2028553  56.6944913  78.6361313
  48.2358553  56.3344913  79.3311313  48.8078553  64.2974913  77.8021313
  49.2838553  63.5684913  77.7541313  47.9868553  64.0114913  77.7261313
  48.7568553  64.1474913  77.7831313  36.2668553  58.3114913  77.1131313
  36.3928553  57.9824913  76.3151313  35.4548553  58.0624913  77.3121313
  36.1658553  58.2264913  77.0251313  45.0238553  65.4644913  80.1571313
  45.0998553  65.8054913  80.9561313  45.1928553  64.6174913  80.2781313
  45.0598553  65.3894913  80.2931313  42.5458553  64.7384913  79.7221313
  42.2478553  64.4234913  80.4791313  43.2408553  65.2114913  79.9571313
  42.6048553  64.7614913  79.8691313  43.1758553  66.7844913  85.1821313
  42.4818553  67.1864913  85.5251313  43.8528553  67.2174913  85.5211313
  43.1728553  66.9074913  85.2831313  36.2438553  60.3224913  87.5291313
  36.6188553  60.9414913  87.0421313  36.9178553  59.8484913  87.8141313
  36.3988553  60.3444913  87.4991313  34.0188553  58.7704913  86.8041313
  34.0958553  58.6014913  85.9511313  34.7648553  59.1764913  87.0011313
  34.1398553  58.8054913  86.7071313  49.5778553  61.4104913  77.2441313
  49.6808553  61.3524913  76.3801313  50.3188553  61.0784913  77.5621313
  49.7028553  61.3534913  77.1631313  43.4978553  68.3754913  78.3511313
  43.2928553  69.2084913  78.1921313  42.7228553  67.9934913  78.4731313
  43.3528553  68.4424913  78.3461313  48.6798553  61.5564913  86.6001313
  48.6778553  60.6934913  86.7241313  48.7468553  61.8804913  87.4071313
  48.6898553  61.4764913  86.7371313  33.4158553  63.9964913  87.0281313
  33.7358553  64.2154913  86.2471313  33.3158553  63.1314913  86.9731313
  33.4478553  63.9014913  86.9051313  34.8718553  59.9324913  73.6461313
  34.1998553  59.9464913  74.2021313  34.9668553  59.0844913  73.4621313
  34.7868553  59.8094913  73.7011313  43.5528553  56.5464913  81.2361313
  42.8528553  57.0644913  81.1801313  43.5908553  56.1664913  80.4521313
  43.4548553  56.5674913  81.1121313  38.8598553  68.6374913  74.7601313
  39.3008553  68.7174913  75.5081313  38.0548553  68.4214913  75.0181313
  38.8058553  68.6174913  74.9091313  47.1508553  57.0624913  84.0361313
  48.0058553  57.1614913  84.1811313  46.7818553  57.6154913  84.6011313
  47.2228553  57.1594913  84.1411313  47.4548553  62.3424913  82.5271313
  48.1208553  62.8834913  82.6871313  47.1098553  62.6534913  81.7881313
  47.5018553  62.4684913  82.4421313  36.1888553  67.7074913  75.3611313
  35.9448553  67.4004913  76.1411313  36.1558553  67.0044913  74.8451313
  36.1478553  67.5584913  75.4001313  39.0078553  65.9524913  74.1041313
  38.1898553  65.6844913  74.2441313  38.9798553  66.8044913  74.2891313
  38.8828553  66.0394913  74.1521313  38.6078553  56.2654913  85.8631313
  37.7438553  56.3494913  85.9431313  38.8278553  55.7514913  86.5321313
  38.5128553  56.2024913  85.9741313  50.6258553  54.9004913  87.1921313
  50.5738553  54.8564913  88.0621313  51.3128553  54.3974913  87.0021313
  50.7198553  54.8204913  87.2921313  42.7108553  57.0134913  84.2371313
  41.9738553  56.5594913  84.3501313  43.2818553  56.6114913  84.7601313
  42.6858553  56.8864913  84.3311313  45.4428553  67.8614913  86.0251313
  45.6488553  68.1624913  86.8171313  45.3818553  68.5834913  85.5401313
  45.4638553  68.0124913  86.0701313  41.0098553  54.5944913  74.0681313
  41.0878553  54.8414913  73.2351313  40.2668553  54.9714913  74.3261313
  40.9118553  54.6864913  73.9831313  50.2548553  66.5004913  85.4831313
  50.2228553  65.6384913  85.3481313  49.5618553  66.8024913  85.0491313
  50.1478553  66.4174913  85.3991313  48.3598553  69.7604913  84.2801313
  48.8868553  69.6774913  83.5891313  47.9688553  68.9824913  84.3341313
  48.3798553  69.6334913  84.1861313  35.8278553  56.3484913  86.5111313
  35.4848553  55.5814913  86.2771313  35.1328553  56.8724913  86.5751313
  35.6748553  56.3124913  86.4861313  44.8738553  55.2044913  83.4881313
  45.5438553  55.7484913  83.6151313  44.3708553  55.6284913  82.9151313
  44.8988553  55.3474913  83.4221313  44.2328553  61.0124913  80.9811313
  44.7838553  60.4054913  81.2811313  43.8078553  61.2754913  81.6961313
  44.2518553  60.9614913  81.1301313  34.4808553  59.6624913  80.4671313
  34.1128553  59.9644913  81.1981313  35.0148553  59.0334913  80.7511313
  34.5048553  59.6144913  80.6171313  46.2028553  62.8434913  77.5431313
  46.2708553  61.9934913  77.7241313  45.3798553  62.9294913  77.2651313
  46.0908553  62.7304913  77.5291313  40.1218553  63.7344913  76.4811313
  40.2218553  63.8734913  75.6261313  40.9398553  63.6744913  76.7771313
  40.2568553  63.7454913  76.3981313  45.3568553  68.0634913  76.2831313
  45.1058553  67.9354913  77.1091313  45.0398553  67.3684913  75.8621313
  45.2728553  67.9424913  76.3431313  50.0008553  59.7214913  84.4031313
  49.1678553  59.9714913  84.3311313  49.9448553  58.8814913  84.6321313
  49.8698553  59.6344913  84.4261313  42.2428553  66.2714913  75.7131313
  42.9598553  65.9244913  75.3571313  42.2088553  67.0714913  75.3651313
  42.3438553  66.3384913  75.6091313  43.6518553  54.9124913  59.9518903
  43.4068553  55.4004913  59.2718903  44.5148553  54.8394913  59.8518903
  43.7428553  54.9734913  59.8368903  43.4608553  61.8284913  64.6228903
  42.9368553  62.4244913  64.9858903  43.8578553  61.4604913  65.3068903
  43.4418553  61.8624913  64.7778903  33.3298553  65.9684913  60.0788903
  32.8888553  66.0864913  60.8218903  33.0468553  65.1934913  59.7938903
  33.2228553  65.8714913  60.1468903  49.6048553  69.2694913  57.5938903
  50.3058553  68.7504913  57.5898903  49.0178553  68.8244913  57.1248903
  49.6218553  69.1264913  57.5238903  33.0728553  59.7604913  56.5858903
  32.2948553  59.9224913  56.2258903  33.1118553  58.8894913  56.6078903
  32.9638553  59.6554913  56.5358903  36.2118553  65.0234913  55.2578903
  35.8198553  64.6524913  54.5718903  36.1318553  64.4254913  55.8868903
  36.1418553  64.8804913  55.2488903  46.1318553  62.8954913  61.2988903
  46.2118553  62.8994913  60.4298903  45.5478553  62.2634913  61.4478903
  46.0568553  62.8024913  61.1928903  35.8388553  66.6644913  59.1578903
  36.4468553  66.4944913  59.7608903  35.0878553  66.5244913  59.5788903
  35.8178553  66.6184913  59.3088903  40.1208553  55.9994913  59.1068903
  40.0508553  56.6764913  58.5608903  40.8618553  55.6114913  58.8578903
  40.2198553  56.0424913  58.9888903  33.2698553  68.7034913  66.3338903
  33.3988553  68.4234913  67.1498903  32.6598553  68.1624913  66.0248903
  33.1988553  68.5824913  66.4088903  39.8438553  66.2284913  71.4008903
  39.6078553  66.2254913  72.2408903  39.0958553  66.0804913  70.9768903
  39.6978553  66.2054913  71.4618903  34.7158553  63.2244913  60.5358903
  34.2538553  62.8324913  59.9088903  35.4158553  62.7114913  60.6278903
  34.7508553  63.0914913  60.4568903  39.2238553  58.8344913  65.8828903
  39.9018553  58.8524913  65.3338903  39.1788553  57.9984913  66.1278903
  39.3168553  58.7134913  65.8378903  36.7168553  61.3244913  60.5588903
  37.5338553  61.1374913  60.8018903  36.2398553  60.7104913  60.9548903
  36.7668553  61.2064913  60.6538903  40.9208553  67.3054913  63.1688903
  41.2688553  66.5064913  63.1988903  41.5858553  67.8094913  62.9138903
  41.0708553  67.2614913  63.1358903  40.9778553  66.7544913  59.3798903
  41.3088553  66.1104913  59.8658903  41.2178553  66.5434913  58.5688903
  41.0618553  66.6284913  59.3318903  42.9458553  60.8854913  70.7188903
  42.0978553  60.7864913  70.5408903  42.9748553  61.6304913  71.1728903
  42.8248553  60.9814913  70.7598903  37.3138553  56.4184913  59.8248903
  37.0178553  56.9194913  59.1748903  38.1808553  56.4964913  59.7678903
  37.3978553  56.5044913  59.7208903  47.5038553  53.8454913  69.8328903
  47.3458553  54.6144913  69.4508903  46.7318553  53.6254913  70.1768903
  47.3658553  53.9264913  69.8278903  40.2928553  55.5604913  62.0478903
  40.3658553  56.4204913  62.1768903  40.2548553  55.4854913  61.1798903
  40.2978553  55.6764913  61.9388903  44.9658553  58.4864913  54.3468903
  44.5158553  59.1674913  54.6538903  45.0798553  57.9824913  55.0498903
  44.9168553  58.5124913  54.4958903  33.1718553  60.9854913  63.5488903
  32.9158553  61.8164913  63.4738903  32.5078553  60.6024913  63.9658903
  33.0358553  61.0514913  63.5998903  38.9218553  68.5394913  58.9288903
  38.3428553  68.2644913  59.5208903  39.5458553  67.9304913  58.9538903
  38.9288553  68.4094913  59.0198903  36.2008553  55.8024913  64.0398903
  35.6798553  55.1744913  63.7318903  36.7918553  55.3654913  64.5108903
  36.2118553  55.6444913  64.0638903  39.5068553  57.9354913  73.3378903
  39.6238553  57.4814913  72.6018903  39.7948553  58.7334913  73.1348903
  39.5668553  57.9864913  73.1988903  50.3598553  58.4594913  60.6418903
  50.0138553  59.1374913  61.0678903  49.7238553  57.8614913  60.6578903
  50.2148553  58.4714913  60.7068903  35.2398553  57.5324913  72.3218903
  34.4618553  57.1424913  72.2498903  35.7308553  57.1204913  71.7308903
  35.1968553  57.4134913  72.2238903  35.4448553  67.8524913  62.8798903
  35.8678553  67.4964913  62.2058903  35.7688553  67.4304913  63.5718903
  35.5548553  67.7374913  62.8828903  41.8888553  55.1754913  71.4898903
  42.0668553  54.3664913  71.2148903  41.7458553  55.6164913  70.7508903
  41.8938553  55.1214913  71.3398903  42.4828553  60.1014913  60.2628903
  42.7698553  59.8694913  59.4728903  43.2148553  60.1804913  60.7318903
  42.6328553  60.0784913  60.2158903  43.2048553  60.4404913  55.3838903
  43.4858553  61.2284913  55.6328903  42.4288553  60.6054913  55.0208903
  43.1318553  60.5814913  55.3668903  50.0348553  56.7824913  66.0108903
  50.7918553  56.8544913  65.5828903  50.0978553  56.0094913  66.4098903
  50.1558553  56.6794913  66.0058903  32.5878553  58.0804913  69.9078903
  32.5838553  58.6674913  70.5538903  33.1818553  58.3924913  69.3508903
  32.6748553  58.2134913  69.9208903  44.9258553  68.4144913  70.4498903
  44.8918553  68.7964913  71.2338903  45.7798553  68.3724913  70.2788903
  45.0468553  68.4644913  70.5408903  42.0638553  68.6114913  55.1998903
  41.8828553  69.1564913  55.8568903  42.8298553  68.9014913  54.8988903
  42.1498553  68.7354913  55.2528903  45.5708553  56.5074913  56.2538903
  46.1108553  55.8254913  56.3298903  45.6328553  56.9054913  57.0278903
  45.6598553  56.4654913  56.3798903  33.5248553  57.6754913  58.8228903
  33.4108553  56.8114913  58.8538903  33.0498553  57.9694913  59.4928903
  33.4378553  57.5914913  58.9258903  42.8288553  58.8834913  57.5678903
  42.3208553  58.2214913  57.3138903  42.8808553  59.3874913  56.8578903
  42.7618553  58.8604913  57.4258903  42.8288553  55.8244913  57.4588903
  42.3738553  55.4224913  56.8328903  43.6018553  55.9794913  57.0838903
  42.8758553  55.7884913  57.3108903  41.4268553  58.1914913  61.9808903
  41.5008553  58.7594913  61.3228903  41.5478553  58.6834913  62.6908903
  41.4548553  58.3484913  61.9888903  46.6518553  68.0264913  60.3928903
  47.3528553  67.5444913  60.5818903  45.9918553  67.4574913  60.4378903
  46.6578553  67.8714913  60.4268903  37.0278553  68.9364913  69.6048903
  37.8688553  68.9994913  69.3828903  36.9908553  69.3334913  70.3808903
  37.1468553  69.0044913  69.6868903  36.0348553  54.0144913  60.3288903
  36.5708553  54.7024913  60.3188903  36.0378553  53.7404913  59.5008903
  36.1138553  54.0754913  60.2048903  38.9908553  64.4474913  64.3538903
  39.1628553  64.2374913  65.1828903  38.3358553  63.9134913  64.1378903
  38.9198553  64.3374913  64.4448903  45.2188553  58.3614913  67.8688903
  45.1238553  58.6804913  68.6748903  44.6258553  57.7224913  67.8308903
  45.1168553  58.3134913  67.9828903  39.7408553  64.3854913  66.9438903
  39.7938553  65.2324913  67.1458903  39.4558553  64.0154913  67.6808903
  39.7068553  64.4554913  67.0818903  45.9178553  65.0804913  66.0738903
  45.4038553  64.6684913  66.6448903  45.7918553  65.9244913  66.2548903
  45.8238553  65.1444913  66.1848903  46.4748553  54.3054913  60.7048903
  46.5238553  53.9874913  61.5158903  46.7978553  53.6614913  60.2118903
  46.5298553  54.1634913  60.7518903  32.5618553  68.7564913  73.1548903
  33.3178553  69.1054913  73.4128903  32.7388553  67.9034913  73.0978903
  32.6998553  68.6814913  73.1848903  48.9388553  58.5414913  69.0128903
  49.7108553  58.3164913  69.3498903  48.4638553  58.7584913  69.7128903
  48.9828553  58.5404913  69.1658903  36.4828553  57.8244913  61.9828903
  36.7548553  57.3944913  61.2748903  36.3068553  57.1884913  62.5538903
  36.4968553  57.6674913  61.9628903  49.1708553  65.5194913  56.2008903
  49.2898553  65.2324913  57.0158903  49.9778553  65.5404913  55.8708903
  49.3068553  65.4804913  56.2728903  36.3068553  65.2514913  61.5318903
  37.1578553  65.1714913  61.3588903  35.9498553  64.5694913  61.1198903
  36.3798553  65.1384913  61.4448903  34.6238553  58.9264913  65.0648903
  35.4668553  59.1464913  65.0218903  34.2348553  59.4994913  64.5338903
  34.6908553  59.0434913  64.9798903  47.0658553  62.0564913  55.7858903
  46.8458553  62.7874913  55.3638903  46.6178553  62.1074913  56.5328903
  46.9668553  62.1714913  55.8338903  38.6748553  65.2584913  59.7668903
  39.3878553  65.7534913  59.8568903  38.8968553  64.6914913  59.1408903
  38.8128553  65.2474913  59.6878903  51.2528553  56.9174913  55.2388903
  50.5908553  56.3494913  55.2618903  51.0598553  57.4294913  54.5588903
  51.1268553  56.9094913  55.1418903  32.8308553  66.9014913  63.0868903
  32.1638553  67.3894913  63.3628903  33.5108553  67.4464913  63.1158903
  32.8328553  67.0534913  63.1318903  40.4778553  60.6114913  73.1828903
  39.9938553  61.1884913  73.6248903  40.4498553  60.9064913  72.3618903
  40.4018553  60.7404913  73.1268903  51.5758553  61.2954913  67.7948903
  51.7908553  60.4954913  67.5188903  50.7258553  61.3554913  67.6058903
  51.4818553  61.1864913  67.7258903  32.8968553  63.5854913  58.1898903
  32.7118553  62.7464913  58.3418903  33.5558553  63.5494913  57.6198903
  32.9668553  63.4564913  58.1278903  49.2548553  56.4754913  57.5178903
  50.0008553  56.0684913  57.7168903  49.5178553  57.1904913  57.0928903
  49.4038553  56.5214913  57.4848903  43.1978553  68.9614913  62.0938903
  42.6748553  69.5954913  61.8008903  43.5078553  68.5974913  61.3648903
  43.1658553  69.0014913  61.9428903  33.0688553  67.7494913  57.7648903
  33.6208553  68.3184913  58.1288903  32.8368553  67.2344913  58.4298903
  33.1158553  67.7574913  57.9168903  37.2728553  66.7494913  64.8538903
  37.7398553  67.0384913  65.5318903  37.8448553  66.2714913  64.3998903
  37.4268553  66.7214913  64.8868903  45.7088553  58.7634913  62.5908903
  46.0528553  58.9154913  63.3778903  45.2558553  58.0254913  62.7038903
  45.6928553  58.6764913  62.7238903  32.8988553  66.1984913  55.3928903
  33.6548553  65.7664913  55.4508903  32.9138553  66.7304913  56.0838903
  33.0128553  66.2134913  55.5038903  33.8388553  64.4194913  63.3978903
  34.2698553  64.2904913  62.6508903  33.6338553  65.2674913  63.3718903
  33.8718553  64.5254913  63.2838903  40.1848553  57.9834913  57.0478903
  40.1828553  57.8664913  56.1828903  40.0038553  58.8314913  57.1398903
  40.1578553  58.0914913  56.9338903  37.9228553  67.9354913  61.6798903
  38.0488553  68.7784913  61.8668903  38.5908553  67.5364913  62.0758903
  38.0408553  68.0014913  61.7658903  36.0528553  61.4184913  71.5418903
  35.5168553  60.9124913  72.0098903  36.0728553  61.0284913  70.7618903
  35.9758553  61.2854913  71.4958903  36.5378553  60.8154913  56.6818903
  36.4098553  60.3674913  57.4198903  35.9558553  60.4734913  56.1298903
  36.4328553  60.6984913  56.7098903  36.7048553  62.6454913  63.2808903
  35.9238553  62.5864913  62.8978903  36.7768553  61.8934913  63.7178903
  36.5998553  62.5264913  63.2888903  37.1348553  62.3824913  66.7488903
  37.1598553  61.7074913  66.1978903  36.4888553  62.8784913  66.4368903
  37.0438553  62.3554913  66.6218903  47.0298553  60.0954913  65.1448903
  46.3678553  60.4234913  65.6078903  47.2168553  60.7294913  64.5758903
  46.9598553  60.2374913  65.1288903  43.6748553  56.0014913  68.5738903
  43.8238553  55.1764913  68.3308903  44.0538553  56.0564913  69.3578903
  43.7528553  55.8874913  68.6538903  45.2228553  58.0644913  58.6558903
  45.7128553  58.7814913  58.5788903  44.4328553  58.3254913  58.3928903
  45.1788553  58.2084913  58.6058903  34.9338553  63.7374913  72.3078903
  34.8968553  64.2384913  71.5938903  35.2648553  62.9854913  72.0128903
  34.9768553  63.6994913  72.1588903  46.5368553  65.9424913  70.5658903
  47.0208553  66.6604913  70.6638903  46.9308553  65.5154913  69.9148903
  46.6668553  65.9854913  70.4838903  40.8328553  68.7874913  71.7428903
  41.1868553  68.6094913  72.5198903  40.3968553  68.0584913  71.5438903
  40.8208553  68.6534913  71.8288903  41.8048553  59.5344913  64.3808903
  42.2848553  60.2334913  64.5888903  42.1778553  58.8874913  64.8318903
  41.9308553  59.5424913  64.4778903  43.9938553  62.7034913  56.6548903
  43.9858553  63.4254913  56.1648903  43.3548553  62.8384913  57.2318903
  43.8988553  62.8304913  56.6678903  48.9658553  66.5734913  60.6358903
  49.3218553  66.2234913  61.3508903  48.9578553  65.9124913  60.0658903
  49.0178553  66.4234913  60.6568903  45.0238553  66.4904913  63.8798903
  44.2268553  66.7144913  64.1538903  45.2818553  65.8964913  64.4648903
  44.9438553  66.4354913  64.0068903  38.5868553  55.0454913  56.3158903
  38.6838553  54.9384913  57.1768903  37.8788553  55.5514913  56.2508903
  38.4968553  55.1044913  56.4338903  48.2838553  64.4884913  68.7258903
  48.3388553  64.6134913  67.8638903  49.0368553  64.8084913  69.0278903
  48.4028553  64.5534913  68.6428903  49.3158553  54.7864913  71.7128903
  48.6788553  54.3864913  71.2708903  49.3418553  54.3554913  72.4708903
  49.2258553  54.6644913  71.7588903  35.7088553  63.3524913  57.5588903
  36.0328553  62.5734913  57.3368903  36.3548553  63.7204913  58.0138903
  35.8518553  63.2914913  57.5928903  44.0148553  64.2944913  68.3258903
  43.8598553  64.9044913  68.9298903  44.5488553  63.7364913  68.7318903
  44.0708553  64.3024913  68.4748903  32.7058553  55.0134913  58.5268903
  32.8348553  54.3054913  58.0348903  32.3388553  54.6954913  59.2518903
  32.6708553  54.8614913  58.5618903  42.3988553  62.6944913  58.9838903
  42.4578553  63.3444913  59.5628903  42.2098553  61.9984913  59.4748903
  42.3798553  62.6874913  59.1418903  47.6248553  67.0234913  64.8528903
  47.1458553  67.3214913  64.1868903  47.2688553  66.2474913  65.0308903
  47.5018553  66.9524913  64.7808903  36.8948553  57.2114913  55.4958903
  36.3838553  57.2644913  54.7898903  37.6788553  57.4514913  55.1998903
  36.9348553  57.2544913  55.3478903  41.6218553  64.7414913  63.4148903
  40.7748553  64.5474913  63.4958903  41.9458553  64.5764913  64.2078903
  41.5438553  64.6884913  63.5438903  35.4698553  64.4344913  65.7308903
  36.1918553  64.9224913  65.6938903  35.1998553  64.4044913  64.9018903
  35.5368553  64.5024913  65.6028903  38.6998553  59.6054913  62.4658903
  39.5458553  59.4154913  62.5638903  38.3298553  58.8284913  62.3278903
  38.7698553  59.4624913  62.4598903  33.5208553  60.9434913  59.1208903
  34.0098553  60.6514913  59.7818903  33.6498553  60.3504913  58.4938903
  33.6118553  60.8124913  59.1258903  48.5558553  63.9654913  65.9718903
  48.5488553  63.1894913  66.3698903  47.7148553  64.1994913  65.9648903
  48.4308553  63.8854913  66.0298903  38.0458553  62.3774913  54.6068903
  37.4358553  61.9724913  55.0808903  37.6598553  62.4954913  53.8338903
  37.8988553  62.3344913  54.5628903  34.8648553  65.4864913  70.0088903
  34.4438553  64.9684913  69.4478903  34.5128553  66.2724913  69.8658903
  34.7508553  65.5264913  69.9048903  49.8118553  64.0364913  63.4088903
  49.5258553  64.4374913  64.1288903  50.6718553  63.9744913  63.5358903
  49.8968553  64.0864913  63.5338903  39.5008553  60.8384913  57.3168903
  39.7728553  61.6644913  57.3838903  38.6378553  60.9134913  57.2208903
  39.4138553  60.9714913  57.3118903  47.4738553  57.9604913  71.9488903
  46.9488553  58.4194913  72.4728903  47.1128553  57.1654913  71.9428903
  47.3428553  57.9104913  72.0248903  32.9808553  56.8084913  63.8528903
  33.0248553  57.1524913  63.0518903  33.7358553  57.0454913  64.2198903
  33.0988553  56.8944913  63.7888903  45.9658553  61.5294913  72.0248903
  46.0388553  61.6334913  72.8878903  45.3318553  62.0874913  71.8038903
  45.8828553  61.6274913  72.1198903  48.2338553  61.8484913  70.3898903
  48.5528553  62.6344913  70.5928903  47.8638553  61.5784913  71.1328903
  48.2268553  61.9244913  70.5298903  47.5478553  68.2724913  55.9198903
  47.8818553  67.4664913  55.9548903  46.7928553  68.2004913  56.3498903
  47.4858553  68.1424913  55.9888903  48.0298553  60.1064913  61.5788903
  47.2848553  59.7834913  61.8968903  48.0318553  60.9324913  61.8588903
  47.9198553  60.1804913  61.6668903  50.9318553  62.3904913  73.1248903
  50.8798553  62.0494913  72.3238903  51.6688553  62.8574913  73.1028903
  51.0328553  62.4094913  73.0028903  50.4698553  66.0664913  69.3308903
  51.0978553  65.5174913  69.0748903  50.4088553  66.6314913  68.6688903
  50.5538553  66.0694913  69.1948903  44.9218553  66.1474913  55.3228903
  45.6058553  65.6334913  55.1538903  44.5048553  66.1934913  54.5578903
  44.9608553  66.0784913  55.1848903  39.6038553  67.2974913  66.6268903
  39.3058553  67.8894913  67.1938903  39.6588553  67.7394913  65.8778903
  39.5678553  67.4504913  66.5998903  37.5828553  66.2474913  70.0248903
  36.7768553  65.9574913  70.1918903  37.4938553  67.1154913  70.0308903
  37.4508553  66.3324913  70.0498903  46.9418553  56.4364913  69.0398903
  47.6858553  56.8884913  68.9768903  46.3758553  56.9064913  68.5708903
  46.9688553  56.5734913  68.9618903  42.1198553  63.7204913  66.1178903
  42.5958553  64.0944913  66.7458903  41.2968553  63.8544913  66.3768903
  42.0688553  63.7954913  66.2488903  38.8298553  59.3234913  68.8588903
  38.9908553  58.5794913  69.2858903  38.7848553  59.0744913  68.0238903
  38.8468553  59.1764913  68.7988903  48.2268553  54.4164913  66.7098903
  47.9468553  55.2414913  66.6658903  48.9428553  54.4694913  67.2058903
  48.2918553  54.5464913  66.7768903  40.5818553  55.1314913  68.7388903
  41.2868553  55.4514913  68.3368903  40.8228553  54.3244913  68.9658903
  40.7208553  55.0594913  68.7128903  43.8758553  65.9754913  71.7238903
  44.6328553  66.2614913  71.3978903  43.3288553  66.0274913  71.0458903
  43.9068553  66.0254913  71.5748903  47.7848553  68.5254913  70.2278903
  48.1308553  68.7954913  70.9818903  48.0788553  69.1074913  69.6478903
  47.8798553  68.6514913  70.2538903  49.6478553  60.6714913  55.5668903
  50.0258553  61.3484913  55.1668903  48.8058553  60.8954913  55.5978903
  49.5788553  60.8044913  55.5118903  41.1608553  64.1174913  54.6498903
  40.3558553  63.9404913  54.3648903  41.1278553  64.9684913  54.8418903
  41.0368553  64.2164913  54.6368903  37.0908553  60.1844913  64.7998903
  37.5308553  60.0814913  64.0538903  37.6358553  59.8714913  65.4048903
  37.2358553  60.1234913  64.7788903  45.1068553  59.2864913  70.3918903
  44.4588553  59.7564913  70.7398903  45.6718553  59.1974913  71.0508903
  45.0948553  59.3424913  70.5408903  44.7948553  60.8234913  66.6898903
  45.0968553  61.2434913  67.3928903  44.8308553  59.9834913  66.9218903
  44.8448553  60.7614913  66.8278903  47.3428553  60.2704913  58.9418903
  47.5498553  60.0694913  59.7658903  48.0988553  60.5384913  58.5998903
  47.4848553  60.2804913  59.0128903  40.6378553  55.1694913  64.8468903
  39.8118553  55.0204913  65.0838903  40.5978553  55.2044913  63.9758903
  40.5098553  55.1524913  64.7528903  48.3648553  56.3534913  60.4158903
  47.6508553  55.8824913  60.5868903  48.2028553  56.6944913  59.6298903
  48.2358553  56.3344913  60.3248903  48.8078553  64.2974913  58.7958903
  49.2838553  63.5684913  58.7478903  47.9868553  64.0114913  58.7198903
  48.7568553  64.1474913  58.7768903  42.2788553  66.2094913  69.6348903
  41.4838553  66.1454913  69.9858903  42.3498553  67.0564913  69.4398903
  42.1718553  66.3244913  69.6578903  33.2028553  55.5674913  70.8818903
  33.0628553  56.3624913  70.5508903  32.4168553  55.3244913  71.1708903
  33.0658553  55.6494913  70.8758903  36.2668553  58.3114913  58.1068903
  36.3928553  57.9824913  57.3088903  35.4548553  58.0624913  58.3058903
  36.1658553  58.2264913  58.0188903  45.0238553  65.4644913  61.1508903
  45.0998553  65.8054913  61.9498903  45.1928553  64.6174913  61.2718903
  45.0598553  65.3894913  61.2868903  42.5458553  64.7384913  60.7158903
  42.2478553  64.4234913  61.4728903  43.2408553  65.2114913  60.9508903
  42.6048553  64.7614913  60.8628903  42.7678553  68.8564913  68.7428903
  43.4548553  68.7424913  69.2678903  42.9018553  69.6474913  68.3988903
  42.8888553  68.9564913  68.7698903  50.9438553  61.4654913  70.5538903
  50.0888553  61.3434913  70.6798903  51.0968553  61.0704913  69.7908903
  50.8398553  61.3884913  70.4598903  45.4568553  62.1304913  69.1298903
  45.2018553  61.4114913  69.5518903  46.2778553  62.2464913  69.3998903
  45.5408553  62.0414913  69.2318903  43.3908553  63.3204913  72.3168903
  43.7138553  64.0064913  71.8848903  42.6868553  63.6434913  72.7188903
  43.3338553  63.4694913  72.3118903  43.1758553  66.7844913  66.1758903
  42.4818553  67.1864913  66.5188903  43.8528553  67.2174913  66.5148903
  43.1728553  66.9074913  66.2768903  48.5528553  69.3774913  72.7558903
  49.3288553  68.9874913  72.8388903  48.0838553  69.0414913  73.4108903
  48.5978553  69.2704913  72.8648903  36.2438553  60.3224913  68.5228903
  36.6188553  60.9414913  68.0358903  36.9178553  59.8484913  68.8078903
  36.3988553  60.3444913  68.4928903  34.0188553  58.7704913  67.7978903
  34.0958553  58.6014913  66.9448903  34.7648553  59.1764913  67.9948903
  34.1398553  58.8054913  67.7008903  49.5778553  61.4104913  58.2378903
  49.6808553  61.3524913  57.3738903  50.3188553  61.0784913  58.5558903
  49.7028553  61.3534913  58.1568903  36.5728553  56.1804913  70.2088903
  36.4918553  55.3364913  70.4148903  36.2588553  56.2244913  69.3958903
  36.5148553  56.0624913  70.1188903  43.4978553  68.3754913  59.3448903
  43.2928553  69.2084913  59.1858903  42.7228553  67.9934913  59.4668903
  43.3528553  68.4424913  59.3398903  48.6798553  61.5564913  67.5938903
  48.6778553  60.6934913  67.7178903  48.7468553  61.8804913  68.4008903
  48.6898553  61.4764913  67.7308903  33.4158553  63.9964913  68.0218903
  33.7358553  64.2154913  67.2408903  33.3158553  63.1314913  67.9668903
  33.4478553  63.9014913  67.8988903  34.8718553  59.9324913  54.6398903
  34.1998553  59.9464913  55.1958903  34.9668553  59.0844913  54.4558903
  34.7868553  59.8094913  54.6948903  44.5588553  56.3564913  71.3758903
  44.6508553  57.0684913  71.8698903  43.9218553  55.9114913  71.7728903
  44.4778553  56.3954913  71.5078903  43.5528553  56.5464913  62.2298903
  42.8528553  57.0644913  62.1738903  43.5908553  56.1664913  61.4458903
  43.4548553  56.5674913  62.1058903  38.8598553  68.6374913  55.7538903
  39.3008553  68.7174913  56.5018903  38.0548553  68.4214913  56.0118903
  38.8058553  68.6174913  55.9028903  47.1508553  57.0624913  65.0298903
  48.0058553  57.1614913  65.1748903  46.7818553  57.6154913  65.5948903
  47.2228553  57.1594913  65.1348903  38.1788553  63.2884913  69.4068903
  37.7828553  64.0624913  69.4818903  37.7728553  62.9154913  68.7308903
  38.0608553  63.3474913  69.3178903  47.4548553  62.3424913  63.5208903
  48.1208553  62.8834913  63.6808903  47.1098553  62.6534913  62.7818903
  47.5018553  62.4684913  63.4358903  36.1888553  67.7074913  56.3548903
  35.9448553  67.4004913  57.1348903  36.1558553  67.0044913  55.8388903
  36.1478553  67.5584913  56.3938903  39.0078553  65.9524913  55.0978903
  38.1898553  65.6844913  55.2378903  38.9798553  66.8044913  55.2828903
  38.8828553  66.0394913  55.1458903  38.6078553  56.2654913  66.8568903
  37.7438553  56.3494913  66.9368903  38.8278553  55.7514913  67.5258903
  38.5128553  56.2024913  66.9678903  50.6258553  54.9004913  68.1858903
  50.5738553  54.8564913  69.0558903  51.3128553  54.3974913  67.9958903
  50.7198553  54.8204913  68.2858903  42.7108553  57.0134913  65.2308903
  41.9738553  56.5594913  65.3438903  43.2818553  56.6114913  65.7538903
  42.6858553  56.8864913  65.3248903  45.4428553  67.8614913  67.0188903
  45.6488553  68.1624913  67.8108903  45.3818553  68.5834913  66.5338903
  45.4638553  68.0124913  67.0638903  40.2138553  61.3424913  70.4348903
  39.8918553  60.7664913  69.8648903  39.8548553  62.0974913  70.1888903
  40.1138553  61.3684913  70.3148903  41.0098553  54.5944913  55.0618903
  41.0878553  54.8414913  54.2288903  40.2668553  54.9714913  55.3198903
  40.9118553  54.6864913  54.9768903  50.2548553  66.5004913  66.4768903
  50.2228553  65.6384913  66.3418903  49.5618553  66.8024913  66.0428903
  50.1478553  66.4174913  66.3928903  48.3598553  69.7604913  65.2738903
  48.8868553  69.6774913  64.5828903  47.9688553  68.9824913  65.3278903
  48.3798553  69.6334913  65.1798903  35.8278553  56.3484913  67.5048903
  35.4848553  55.5814913  67.2708903  35.1328553  56.8724913  67.5688903
  35.6748553  56.3124913  67.4798903  44.8738553  55.2044913  64.4818903
  45.5438553  55.7484913  64.6088903  44.3708553  55.6284913  63.9088903
  44.8988553  55.3474913  64.4158903  44.2328553  61.0124913  61.9748903
  44.7838553  60.4054913  62.2748903  43.8078553  61.2754913  62.6898903
  44.2518553  60.9614913  62.1238903  34.4808553  59.6624913  61.4608903
  34.1128553  59.9644913  62.1918903  35.0148553  59.0334913  61.7448903
  34.5048553  59.6144913  61.6108903  34.1688553  68.0704913  68.9718903
  33.5948553  68.4864913  69.4808903  34.9018553  68.5354913  69.0668903
  34.1928553  68.2004913  69.0608903  46.2028553  62.8434913  58.5368903
  46.2708553  61.9934913  58.7178903  45.3798553  62.9294913  58.2588903
  46.0908553  62.7304913  58.5228903  40.1218553  63.7344913  57.4748903
  40.2218553  63.8734913  56.6198903  40.9398553  63.6744913  57.7708903
  40.2568553  63.7454913  57.3918903  49.4768553  64.2164913  71.6878903
  50.1108553  64.0464913  72.2618903  49.8938553  64.6194913  71.0358903
  49.6318553  64.2514913  71.6768903  45.3568553  68.0634913  57.2768903
  45.1058553  67.9354913  58.1028903  45.0398553  67.3684913  56.8558903
  45.2728553  67.9424913  57.3368903  50.1018553  58.7804913  72.4258903
  49.9058553  59.4244913  72.9808903  49.3798553  58.2904913  72.4178903
  49.9668553  58.8034913  72.5068903  50.0008553  59.7214913  65.3968903
  49.1678553  59.9714913  65.3248903  49.9448553  58.8814913  65.6258903
  49.8698553  59.6344913  65.4198903  39.2608553  56.7094913  70.5908903
  39.4948553  56.1334913  69.9778903  38.4188553  56.5284913  70.7318903
  39.1708553  56.5974913  70.5208903  46.8878553  64.3274913  73.0428903
  47.7588553  64.2914913  73.0068903  46.6688553  64.7474913  72.3108903
  46.9848553  64.3834913  72.9298903  42.2428553  66.2714913  56.7068903
  42.9598553  65.9244913  56.3508903  42.2088553  67.0714913  56.3588903
  42.3438553  66.3384913  56.6028903  43.6518553  54.9124913  40.9456493
  43.4068553  55.4004913  40.2656493  44.5148553  54.8394913  40.8456493
  43.7428553  54.9734913  40.8306493  43.4608553  61.8284913  45.6166493
  42.9368553  62.4244913  45.9796493  43.8578553  61.4604913  46.3006493
  43.4418553  61.8624913  45.7716493  33.3298553  65.9684913  41.0726493
  32.8888553  66.0864913  41.8156493  33.0468553  65.1934913  40.7876493
  33.2228553  65.8714913  41.1406493  49.6048553  69.2694913  38.5876493
  50.3058553  68.7504913  38.5836493  49.0178553  68.8244913  38.1186493
  49.6218553  69.1264913  38.5176493  33.0728553  59.7604913  37.5796493
  32.2948553  59.9224913  37.2196493  33.1118553  58.8894913  37.6016493
  32.9638553  59.6554913  37.5296493  36.2118553  65.0234913  36.2516493
  35.8198553  64.6524913  35.5656493  36.1318553  64.4254913  36.8806493
  36.1418553  64.8804913  36.2426493  46.1318553  62.8954913  42.2926493
  46.2118553  62.8994913  41.4236493  45.5478553  62.2634913  42.4416493
  46.0568553  62.8024913  42.1866493  35.8388553  66.6644913  40.1516493
  36.4468553  66.4944913  40.7546493  35.0878553  66.5244913  40.5726493
  35.8178553  66.6184913  40.3026493  40.1208553  55.9994913  40.1006493
  40.0508553  56.6764913  39.5546493  40.8618553  55.6114913  39.8516493
  40.2198553  56.0424913  39.9826493  33.2698553  68.7034913  47.3276493
  33.3988553  68.4234913  48.1436493  32.6598553  68.1624913  47.0186493
  33.1988553  68.5824913  47.4026493  39.8438553  66.2284913  52.3946493
  39.6078553  66.2254913  53.2346493  39.0958553  66.0804913  51.9706493
  39.6978553  66.2054913  52.4556493  34.7158553  63.2244913  41.5296493
  34.2538553  62.8324913  40.9026493  35.4158553  62.7114913  41.6216493
  34.7508553  63.0914913  41.4506493  39.2238553  58.8344913  46.8766493
  39.9018553  58.8524913  46.3276493  39.1788553  57.9984913  47.1216493
  39.3168553  58.7134913  46.8316493  36.7168553  61.3244913  41.5526493
  37.5338553  61.1374913  41.7956493  36.2398553  60.7104913  41.9486493
  36.7668553  61.2064913  41.6476493  40.9208553  67.3054913  44.1626493
  41.2688553  66.5064913  44.1926493  41.5858553  67.8094913  43.9076493
  41.0708553  67.2614913  44.1296493  40.9778553  66.7544913  40.3736493
  41.3088553  66.1104913  40.8596493  41.2178553  66.5434913  39.5626493
  41.0618553  66.6284913  40.3256493  42.9458553  60.8854913  51.7126493
  42.0978553  60.7864913  51.5346493  42.9748553  61.6304913  52.1666493
  42.8248553  60.9814913  51.7536493  37.3138553  56.4184913  40.8186493
  37.0178553  56.9194913  40.1686493  38.1808553  56.4964913  40.7616493
  37.3978553  56.5044913  40.7146493  47.5038553  53.8454913  50.8266493
  47.3458553  54.6144913  50.4446493  46.7318553  53.6254913  51.1706493
  47.3658553  53.9264913  50.8216493  40.2928553  55.5604913  43.0416493
  40.3658553  56.4204913  43.1706493  40.2548553  55.4854913  42.1736493
  40.2978553  55.6764913  42.9326493  44.9658553  58.4864913  35.3406493
  44.5158553  59.1674913  35.6476493  45.0798553  57.9824913  36.0436493
  44.9168553  58.5124913  35.4896493  33.1718553  60.9854913  44.5426493
  32.9158553  61.8164913  44.4676493  32.5078553  60.6024913  44.9596493
  33.0358553  61.0514913  44.5936493  38.9218553  68.5394913  39.9226493
  38.3428553  68.2644913  40.5146493  39.5458553  67.9304913  39.9476493
  38.9288553  68.4094913  40.0136493  36.2008553  55.8024913  45.0336493
  35.6798553  55.1744913  44.7256493  36.7918553  55.3654913  45.5046493
  36.2118553  55.6444913  45.0576493  39.5068553  57.9354913  54.3316493
  39.6238553  57.4814913  53.5956493  39.7948553  58.7334913  54.1286493
  39.5668553  57.9864913  54.1926493  50.3598553  58.4594913  41.6356493
  50.0138553  59.1374913  42.0616493  49.7238553  57.8614913  41.6516493
  50.2148553  58.4714913  41.7006493  35.2398553  57.5324913  53.3156493
  34.4618553  57.1424913  53.2436493  35.7308553  57.1204913  52.7246493
  35.1968553  57.4134913  53.2176493  35.4448553  67.8524913  43.8736493
  35.8678553  67.4964913  43.1996493  35.7688553  67.4304913  44.5656493
  35.5548553  67.7374913  43.8766493  41.8888553  55.1754913  52.4836493
  42.0668553  54.3664913  52.2086493  41.7458553  55.6164913  51.7446493
  41.8938553  55.1214913  52.3336493  42.4828553  60.1014913  41.2566493
  42.7698553  59.8694913  40.4666493  43.2148553  60.1804913  41.7256493
  42.6328553  60.0784913  41.2096493  43.2048553  60.4404913  36.3776493
  43.4858553  61.2284913  36.6266493  42.4288553  60.6054913  36.0146493
  43.1318553  60.5814913  36.3606493  50.0348553  56.7824913  47.0046493
  50.7918553  56.8544913  46.5766493  50.0978553  56.0094913  47.4036493
  50.1558553  56.6794913  46.9996493  32.5878553  58.0804913  50.9016493
  32.5838553  58.6674913  51.5476493  33.1818553  58.3924913  50.3446493
  32.6748553  58.2134913  50.9146493  44.9258553  68.4144913  51.4436493
  44.8918553  68.7964913  52.2276493  45.7798553  68.3724913  51.2726493
  45.0468553  68.4644913  51.5346493  42.0638553  68.6114913  36.1936493
  41.8828553  69.1564913  36.8506493  42.8298553  68.9014913  35.8926493
  42.1498553  68.7354913  36.2466493  45.5708553  56.5074913  37.2476493
  46.1108553  55.8254913  37.3236493  45.6328553  56.9054913  38.0216493
  45.6598553  56.4654913  37.3736493  33.5248553  57.6754913  39.8166493
  33.4108553  56.8114913  39.8476493  33.0498553  57.9694913  40.4866493
  33.4378553  57.5914913  39.9196493  42.8288553  58.8834913  38.5616493
  42.3208553  58.2214913  38.3076493  42.8808553  59.3874913  37.8516493
  42.7618553  58.8604913  38.4196493  42.8288553  55.8244913  38.4526493
  42.3738553  55.4224913  37.8266493  43.6018553  55.9794913  38.0776493
  42.8758553  55.7884913  38.3046493  41.4268553  58.1914913  42.9746493
  41.5008553  58.7594913  42.3166493  41.5478553  58.6834913  43.6846493
  41.4548553  58.3484913  42.9826493  46.6518553  68.0264913  41.3866493
  47.3528553  67.5444913  41.5756493  45.9918553  67.4574913  41.4316493
  46.6578553  67.8714913  41.4206493  37.0278553  68.9364913  50.5986493
  37.8688553  68.9994913  50.3766493  36.9908553  69.3334913  51.3746493
  37.1468553  69.0044913  50.6806493  36.0348553  54.0144913  41.3226493
  36.5708553  54.7024913  41.3126493  36.0378553  53.7404913  40.4946493
  36.1138553  54.0754913  41.1986493  38.9908553  64.4474913  45.3476493
  39.1628553  64.2374913  46.1766493  38.3358553  63.9134913  45.1316493
  38.9198553  64.3374913  45.4386493  45.2188553  58.3614913  48.8626493
  45.1238553  58.6804913  49.6686493  44.6258553  57.7224913  48.8246493
  45.1168553  58.3134913  48.9766493  39.7408553  64.3854913  47.9376493
  39.7938553  65.2324913  48.1396493  39.4558553  64.0154913  48.6746493
  39.7068553  64.4554913  48.0756493  45.9178553  65.0804913  47.0676493
  45.4038553  64.6684913  47.6386493  45.7918553  65.9244913  47.2486493
  45.8238553  65.1444913  47.1786493  46.4748553  54.3054913  41.6986493
  46.5238553  53.9874913  42.5096493  46.7978553  53.6614913  41.2056493
  46.5298553  54.1634913  41.7456493  32.5618553  68.7564913  54.1486493
  33.3178553  69.1054913  54.4066493  32.7388553  67.9034913  54.0916493
  32.6998553  68.6814913  54.1786493  48.9388553  58.5414913  50.0066493
  49.7108553  58.3164913  50.3436493  48.4638553  58.7584913  50.7066493
  48.9828553  58.5404913  50.1596493  36.4828553  57.8244913  42.9766493
  36.7548553  57.3944913  42.2686493  36.3068553  57.1884913  43.5476493
  36.4968553  57.6674913  42.9566493  49.1708553  65.5194913  37.1946493
  49.2898553  65.2324913  38.0096493  49.9778553  65.5404913  36.8646493
  49.3068553  65.4804913  37.2666493  36.3068553  65.2514913  42.5256493
  37.1578553  65.1714913  42.3526493  35.9498553  64.5694913  42.1136493
  36.3798553  65.1384913  42.4386493  34.6238553  58.9264913  46.0586493
  35.4668553  59.1464913  46.0156493  34.2348553  59.4994913  45.5276493
  34.6908553  59.0434913  45.9736493  47.0658553  62.0564913  36.7796493
  46.8458553  62.7874913  36.3576493  46.6178553  62.1074913  37.5266493
  46.9668553  62.1714913  36.8276493  38.6748553  65.2584913  40.7606493
  39.3878553  65.7534913  40.8506493  38.8968553  64.6914913  40.1346493
  38.8128553  65.2474913  40.6816493  51.2528553  56.9174913  36.2326493
  50.5908553  56.3494913  36.2556493  51.0598553  57.4294913  35.5526493
  51.1268553  56.9094913  36.1356493  32.8308553  66.9014913  44.0806493
  32.1638553  67.3894913  44.3566493  33.5108553  67.4464913  44.1096493
  32.8328553  67.0534913  44.1256493  40.4778553  60.6114913  54.1766493
  39.9938553  61.1884913  54.6186493  40.4498553  60.9064913  53.3556493
  40.4018553  60.7404913  54.1206493  51.5758553  61.2954913  48.7886493
  51.7908553  60.4954913  48.5126493  50.7258553  61.3554913  48.5996493
  51.4818553  61.1864913  48.7196493  32.8968553  63.5854913  39.1836493
  32.7118553  62.7464913  39.3356493  33.5558553  63.5494913  38.6136493
  32.9668553  63.4564913  39.1216493  49.2548553  56.4754913  38.5116493
  50.0008553  56.0684913  38.7106493  49.5178553  57.1904913  38.0866493
  49.4038553  56.5214913  38.4786493  43.1978553  68.9614913  43.0876493
  42.6748553  69.5954913  42.7946493  43.5078553  68.5974913  42.3586493
  43.1658553  69.0014913  42.9366493  33.0688553  67.7494913  38.7586493
  33.6208553  68.3184913  39.1226493  32.8368553  67.2344913  39.4236493
  33.1158553  67.7574913  38.9106493  37.2728553  66.7494913  45.8476493
  37.7398553  67.0384913  46.5256493  37.8448553  66.2714913  45.3936493
  37.4268553  66.7214913  45.8806493  45.7088553  58.7634913  43.5846493
  46.0528553  58.9154913  44.3716493  45.2558553  58.0254913  43.6976493
  45.6928553  58.6764913  43.7176493  32.8988553  66.1984913  36.3866493
  33.6548553  65.7664913  36.4446493  32.9138553  66.7304913  37.0776493
  33.0128553  66.2134913  36.4976493  33.8388553  64.4194913  44.3916493
  34.2698553  64.2904913  43.6446493  33.6338553  65.2674913  44.3656493
  33.8718553  64.5254913  44.2776493  40.1848553  57.9834913  38.0416493
  40.1828553  57.8664913  37.1766493  40.0038553  58.8314913  38.1336493
  40.1578553  58.0914913  37.9276493  37.9228553  67.9354913  42.6736493
  38.0488553  68.7784913  42.8606493  38.5908553  67.5364913  43.0696493
  38.0408553  68.0014913  42.7596493  36.0528553  61.4184913  52.5356493
  35.5168553  60.9124913  53.0036493  36.0728553  61.0284913  51.7556493
  35.9758553  61.2854913  52.4896493  36.5378553  60.8154913  37.6756493
  36.4098553  60.3674913  38.4136493  35.9558553  60.4734913  37.1236493
  36.4328553  60.6984913  37.7036493  36.7048553  62.6454913  44.2746493
  35.9238553  62.5864913  43.8916493  36.7768553  61.8934913  44.7116493
  36.5998553  62.5264913  44.2826493  37.1348553  62.3824913  47.7426493
  37.1598553  61.7074913  47.1916493  36.4888553  62.8784913  47.4306493
  37.0438553  62.3554913  47.6156493  47.0298553  60.0954913  46.1386493
  46.3678553  60.4234913  46.6016493  47.2168553  60.7294913  45.5696493
  46.9598553  60.2374913  46.1226493  43.6748553  56.0014913  49.5676493
  43.8238553  55.1764913  49.3246493  44.0538553  56.0564913  50.3516493
  43.7528553  55.8874913  49.6476493  45.2228553  58.0644913  39.6496493
  45.7128553  58.7814913  39.5726493  44.4328553  58.3254913  39.3866493
  45.1788553  58.2084913  39.5996493  34.9338553  63.7374913  53.3016493
  34.8968553  64.2384913  52.5876493  35.2648553  62.9854913  53.0066493
  34.9768553  63.6994913  53.1526493  46.5368553  65.9424913  51.5596493
  47.0208553  66.6604913  51.6576493  46.9308553  65.5154913  50.9086493
  46.6668553  65.9854913  51.4776493  40.8328553  68.7874913  52.7366493
  41.1868553  68.6094913  53.5136493  40.3968553  68.0584913  52.5376493
  40.8208553  68.6534913  52.8226493  41.8048553  59.5344913  45.3746493
  42.2848553  60.2334913  45.5826493  42.1778553  58.8874913  45.8256493
  41.9308553  59.5424913  45.4716493  43.9938553  62.7034913  37.6486493
  43.9858553  63.4254913  37.1586493  43.3548553  62.8384913  38.2256493
  43.8988553  62.8304913  37.6616493  48.9658553  66.5734913  41.6296493
  49.3218553  66.2234913  42.3446493  48.9578553  65.9124913  41.0596493
  49.0178553  66.4234913  41.6506493  45.0238553  66.4904913  44.8736493
  44.2268553  66.7144913  45.1476493  45.2818553  65.8964913  45.4586493
  44.9438553  66.4354913  45.0006493  38.5868553  55.0454913  37.3096493
  38.6838553  54.9384913  38.1706493  37.8788553  55.5514913  37.2446493
  38.4968553  55.1044913  37.4276493  48.2838553  64.4884913  49.7196493
  48.3388553  64.6134913  48.8576493  49.0368553  64.8084913  50.0216493
  48.4028553  64.5534913  49.6366493  49.3158553  54.7864913  52.7066493
  48.6788553  54.3864913  52.2646493  49.3418553  54.3554913  53.4646493
  49.2258553  54.6644913  52.7526493  35.7088553  63.3524913  38.5526493
  36.0328553  62.5734913  38.3306493  36.3548553  63.7204913  39.0076493
  35.8518553  63.2914913  38.5866493  44.0148553  64.2944913  49.3196493
  43.8598553  64.9044913  49.9236493  44.5488553  63.7364913  49.7256493
  44.0708553  64.3024913  49.4686493  32.7058553  55.0134913  39.5206493
  32.8348553  54.3054913  39.0286493  32.3388553  54.6954913  40.2456493
  32.6708553  54.8614913  39.5556493  42.3988553  62.6944913  39.9776493
  42.4578553  63.3444913  40.5566493  42.2098553  61.9984913  40.4686493
  42.3798553  62.6874913  40.1356493  47.6248553  67.0234913  45.8466493
  47.1458553  67.3214913  45.1806493  47.2688553  66.2474913  46.0246493
  47.5018553  66.9524913  45.7746493  36.8948553  57.2114913  36.4896493
  36.3838553  57.2644913  35.7836493  37.6788553  57.4514913  36.1936493
  36.9348553  57.2544913  36.3416493  41.6218553  64.7414913  44.4086493
  40.7748553  64.5474913  44.4896493  41.9458553  64.5764913  45.2016493
  41.5438553  64.6884913  44.5376493  35.4698553  64.4344913  46.7246493
  36.1918553  64.9224913  46.6876493  35.1998553  64.4044913  45.8956493
  35.5368553  64.5024913  46.5966493  38.6998553  59.6054913  43.4596493
  39.5458553  59.4154913  43.5576493  38.3298553  58.8284913  43.3216493
  38.7698553  59.4624913  43.4536493  33.5208553  60.9434913  40.1146493
  34.0098553  60.6514913  40.7756493  33.6498553  60.3504913  39.4876493
  33.6118553  60.8124913  40.1196493  48.5558553  63.9654913  46.9656493
  48.5488553  63.1894913  47.3636493  47.7148553  64.1994913  46.9586493
  48.4308553  63.8854913  47.0236493  38.0458553  62.3774913  35.6006493
  37.4358553  61.9724913  36.0746493  37.6598553  62.4954913  34.8276493
  37.8988553  62.3344913  35.5566493  34.8648553  65.4864913  51.0026493
  34.4438553  64.9684913  50.4416493  34.5128553  66.2724913  50.8596493
  34.7508553  65.5264913  50.8986493  49.8118553  64.0364913  44.4026493
  49.5258553  64.4374913  45.1226493  50.6718553  63.9744913  44.5296493
  49.8968553  64.0864913  44.5276493  39.5008553  60.8384913  38.3106493
  39.7728553  61.6644913  38.3776493  38.6378553  60.9134913  38.2146493
  39.4138553  60.9714913  38.3056493  47.4738553  57.9604913  52.9426493
  46.9488553  58.4194913  53.4666493  47.1128553  57.1654913  52.9366493
  47.3428553  57.9104913  53.0186493  32.9808553  56.8084913  44.8466493
  33.0248553  57.1524913  44.0456493  33.7358553  57.0454913  45.2136493
  33.0988553  56.8944913  44.7826493  45.9658553  61.5294913  53.0186493
  46.0388553  61.6334913  53.8816493  45.3318553  62.0874913  52.7976493
  45.8828553  61.6274913  53.1136493  48.2338553  61.8484913  51.3836493
  48.5528553  62.6344913  51.5866493  47.8638553  61.5784913  52.1266493
  48.2268553  61.9244913  51.5236493  47.5478553  68.2724913  36.9136493
  47.8818553  67.4664913  36.9486493  46.7928553  68.2004913  37.3436493
  47.4858553  68.1424913  36.9826493  48.0298553  60.1064913  42.5726493
  47.2848553  59.7834913  42.8906493  48.0318553  60.9324913  42.8526493
  47.9198553  60.1804913  42.6606493  50.9318553  62.3904913  54.1186493
  50.8798553  62.0494913  53.3176493  51.6688553  62.8574913  54.0966493
  51.0328553  62.4094913  53.9966493  50.4698553  66.0664913  50.3246493
  51.0978553  65.5174913  50.0686493  50.4088553  66.6314913  49.6626493
  50.5538553  66.0694913  50.1886493  44.9218553  66.1474913  36.3166493
  45.6058553  65.6334913  36.1476493  44.5048553  66.1934913  35.5516493
  44.9608553  66.0784913  36.1786493  39.6038553  67.2974913  47.6206493
  39.3058553  67.8894913  48.1876493  39.6588553  67.7394913  46.8716493
  39.5678553  67.4504913  47.5936493  37.5828553  66.2474913  51.0186493
  36.7768553  65.9574913  51.1856493  37.4938553  67.1154913  51.0246493
  37.4508553  66.3324913  51.0436493  46.9418553  56.4364913  50.0336493
  47.6858553  56.8884913  49.9706493  46.3758553  56.9064913  49.5646493
  46.9688553  56.5734913  49.9556493  42.1198553  63.7204913  47.1116493
  42.5958553  64.0944913  47.7396493  41.2968553  63.8544913  47.3706493
  42.0688553  63.7954913  47.2426493  38.8298553  59.3234913  49.8526493
  38.9908553  58.5794913  50.2796493  38.7848553  59.0744913  49.0176493
  38.8468553  59.1764913  49.7926493  48.2268553  54.4164913  47.7036493
  47.9468553  55.2414913  47.6596493  48.9428553  54.4694913  48.1996493
  48.2918553  54.5464913  47.7706493  40.5818553  55.1314913  49.7326493
  41.2868553  55.4514913  49.3306493  40.8228553  54.3244913  49.9596493
  40.7208553  55.0594913  49.7066493  43.8758553  65.9754913  52.7176493
  44.6328553  66.2614913  52.3916493  43.3288553  66.0274913  52.0396493
  43.9068553  66.0254913  52.5686493  47.7848553  68.5254913  51.2216493
  48.1308553  68.7954913  51.9756493  48.0788553  69.1074913  50.6416493
  47.8798553  68.6514913  51.2476493  49.6478553  60.6714913  36.5606493
  50.0258553  61.3484913  36.1606493  48.8058553  60.8954913  36.5916493
  49.5788553  60.8044913  36.5056493  41.1608553  64.1174913  35.6436493
  40.3558553  63.9404913  35.3586493  41.1278553  64.9684913  35.8356493
  41.0368553  64.2164913  35.6306493  37.0908553  60.1844913  45.7936493
  37.5308553  60.0814913  45.0476493  37.6358553  59.8714913  46.3986493
  37.2358553  60.1234913  45.7726493  45.1068553  59.2864913  51.3856493
  44.4588553  59.7564913  51.7336493  45.6718553  59.1974913  52.0446493
  45.0948553  59.3424913  51.5346493  44.7948553  60.8234913  47.6836493
  45.0968553  61.2434913  48.3866493  44.8308553  59.9834913  47.9156493
  44.8448553  60.7614913  47.8216493  47.3428553  60.2704913  39.9356493
  47.5498553  60.0694913  40.7596493  48.0988553  60.5384913  39.5936493
  47.4848553  60.2804913  40.0066493  40.6378553  55.1694913  45.8406493
  39.8118553  55.0204913  46.0776493  40.5978553  55.2044913  44.9696493
  40.5098553  55.1524913  45.7466493  48.3648553  56.3534913  41.4096493
  47.6508553  55.8824913  41.5806493  48.2028553  56.6944913  40.6236493
  48.2358553  56.3344913  41.3186493  48.8078553  64.2974913  39.7896493
  49.2838553  63.5684913  39.7416493  47.9868553  64.0114913  39.7136493
  48.7568553  64.1474913  39.7706493  42.2788553  66.2094913  50.6286493
  41.4838553  66.1454913  50.9796493  42.3498553  67.0564913  50.4336493
  42.1718553  66.3244913  50.6516493  33.2028553  55.5674913  51.8756493
  33.0628553  56.3624913  51.5446493  32.4168553  55.3244913  52.1646493
  33.0658553  55.6494913  51.8696493  36.2668553  58.3114913  39.1006493
  36.3928553  57.9824913  38.3026493  35.4548553  58.0624913  39.2996493
  36.1658553  58.2264913  39.0126493  45.0238553  65.4644913  42.1446493
  45.0998553  65.8054913  42.9436493  45.1928553  64.6174913  42.2656493
  45.0598553  65.3894913  42.2806493  42.5458553  64.7384913  41.7096493
  42.2478553  64.4234913  42.4666493  43.2408553  65.2114913  41.9446493
  42.6048553  64.7614913  41.8566493  42.7678553  68.8564913  49.7366493
  43.4548553  68.7424913  50.2616493  42.9018553  69.6474913  49.3926493
  42.8888553  68.9564913  49.7636493  50.9438553  61.4654913  51.5476493
  50.0888553  61.3434913  51.6736493  51.0968553  61.0704913  50.7846493
  50.8398553  61.3884913  51.4536493  45.4568553  62.1304913  50.1236493
  45.2018553  61.4114913  50.5456493  46.2778553  62.2464913  50.3936493
  45.5408553  62.0414913  50.2256493  43.3908553  63.3204913  53.3106493
  43.7138553  64.0064913  52.8786493  42.6868553  63.6434913  53.7126493
  43.3338553  63.4694913  53.3056493  43.1758553  66.7844913  47.1696493
  42.4818553  67.1864913  47.5126493  43.8528553  67.2174913  47.5086493
  43.1728553  66.9074913  47.2706493  48.5528553  69.3774913  53.7496493
  49.3288553  68.9874913  53.8326493  48.0838553  69.0414913  54.4046493
  48.5978553  69.2704913  53.8586493  36.2438553  60.3224913  49.5166493
  36.6188553  60.9414913  49.0296493  36.9178553  59.8484913  49.8016493
  36.3988553  60.3444913  49.4866493  34.0188553  58.7704913  48.7916493
  34.0958553  58.6014913  47.9386493  34.7648553  59.1764913  48.9886493
  34.1398553  58.8054913  48.6946493  49.5778553  61.4104913  39.2316493
  49.6808553  61.3524913  38.3676493  50.3188553  61.0784913  39.5496493
  49.7028553  61.3534913  39.1506493  36.5728553  56.1804913  51.2026493
  36.4918553  55.3364913  51.4086493  36.2588553  56.2244913  50.3896493
  36.5148553  56.0624913  51.1126493  43.4978553  68.3754913  40.3386493
  43.2928553  69.2084913  40.1796493  42.7228553  67.9934913  40.4606493
  43.3528553  68.4424913  40.3336493  48.6798553  61.5564913  48.5876493
  48.6778553  60.6934913  48.7116493  48.7468553  61.8804913  49.3946493
  48.6898553  61.4764913  48.7246493  33.4158553  63.9964913  49.0156493
  33.7358553  64.2154913  48.2346493  33.3158553  63.1314913  48.9606493
  33.4478553  63.9014913  48.8926493  34.8718553  59.9324913  35.6336493
  34.1998553  59.9464913  36.1896493  34.9668553  59.0844913  35.4496493
  34.7868553  59.8094913  35.6886493  44.5588553  56.3564913  52.3696493
  44.6508553  57.0684913  52.8636493  43.9218553  55.9114913  52.7666493
  44.4778553  56.3954913  52.5016493  43.5528553  56.5464913  43.2236493
  42.8528553  57.0644913  43.1676493  43.5908553  56.1664913  42.4396493
  43.4548553  56.5674913  43.0996493  38.8598553  68.6374913  36.7476493
  39.3008553  68.7174913  37.4956493  38.0548553  68.4214913  37.0056493
  38.8058553  68.6174913  36.8966493  47.1508553  57.0624913  46.0236493
  48.0058553  57.1614913  46.1686493  46.7818553  57.6154913  46.5886493
  47.2228553  57.1594913  46.1286493  38.1788553  63.2884913  50.4006493
  37.7828553  64.0624913  50.4756493  37.7728553  62.9154913  49.7246493
  38.0608553  63.3474913  50.3116493  47.4548553  62.3424913  44.5146493
  48.1208553  62.8834913  44.6746493  47.1098553  62.6534913  43.7756493
  47.5018553  62.4684913  44.4296493  36.1888553  67.7074913  37.3486493
  35.9448553  67.4004913  38.1286493  36.1558553  67.0044913  36.8326493
  36.1478553  67.5584913  37.3876493  39.0078553  65.9524913  36.0916493
  38.1898553  65.6844913  36.2316493  38.9798553  66.8044913  36.2766493
  38.8828553  66.0394913  36.1396493  38.6078553  56.2654913  47.8506493
  37.7438553  56.3494913  47.9306493  38.8278553  55.7514913  48.5196493
  38.5128553  56.2024913  47.9616493  50.6258553  54.9004913  49.1796493
  50.5738553  54.8564913  50.0496493  51.3128553  54.3974913  48.9896493
  50.7198553  54.8204913  49.2796493  42.7108553  57.0134913  46.2246493
  41.9738553  56.5594913  46.3376493  43.2818553  56.6114913  46.7476493
  42.6858553  56.8864913  46.3186493  45.4428553  67.8614913  48.0126493
  45.6488553  68.1624913  48.8046493  45.3818553  68.5834913  47.5276493
  45.4638553  68.0124913  48.0576493  40.2138553  61.3424913  51.4286493
  39.8918553  60.7664913  50.8586493  39.8548553  62.0974913  51.1826493
  40.1138553  61.3684913  51.3086493  41.0098553  54.5944913  36.0556493
  41.0878553  54.8414913  35.2226493  40.2668553  54.9714913  36.3136493
  40.9118553  54.6864913  35.9706493  50.2548553  66.5004913  47.4706493
  50.2228553  65.6384913  47.3356493  49.5618553  66.8024913  47.0366493
  50.1478553  66.4174913  47.3866493  48.3598553  69.7604913  46.2676493
  48.8868553  69.6774913  45.5766493  47.9688553  68.9824913  46.3216493
  48.3798553  69.6334913  46.1736493  35.8278553  56.3484913  48.4986493
  35.4848553  55.5814913  48.2646493  35.1328553  56.8724913  48.5626493
  35.6748553  56.3124913  48.4736493  44.8738553  55.2044913  45.4756493
  45.5438553  55.7484913  45.6026493  44.3708553  55.6284913  44.9026493
  44.8988553  55.3474913  45.4096493  44.2328553  61.0124913  42.9686493
  44.7838553  60.4054913  43.2686493  43.8078553  61.2754913  43.6836493
  44.2518553  60.9614913  43.1176493  34.4808553  59.6624913  42.4546493
  34.1128553  59.9644913  43.1856493  35.0148553  59.0334913  42.7386493
  34.5048553  59.6144913  42.6046493  34.1688553  68.0704913  49.9656493
  33.5948553  68.4864913  50.4746493  34.9018553  68.5354913  50.0606493
  34.1928553  68.2004913  50.0546493  46.2028553  62.8434913  39.5306493
  46.2708553  61.9934913  39.7116493  45.3798553  62.9294913  39.2526493
  46.0908553  62.7304913  39.5166493  40.1218553  63.7344913  38.4686493
  40.2218553  63.8734913  37.6136493  40.9398553  63.6744913  38.7646493
  40.2568553  63.7454913  38.3856493  49.4768553  64.2164913  52.6816493
  50.1108553  64.0464913  53.2556493  49.8938553  64.6194913  52.0296493
  49.6318553  64.2514913  52.6706493  45.3568553  68.0634913  38.2706493
  45.1058553  67.9354913  39.0966493  45.0398553  67.3684913  37.8496493
  45.2728553  67.9424913  38.3306493  50.1018553  58.7804913  53.4196493
  49.9058553  59.4244913  53.9746493  49.3798553  58.2904913  53.4116493
  49.9668553  58.8034913  53.5006493  50.0008553  59.7214913  46.3906493
  49.1678553  59.9714913  46.3186493  49.9448553  58.8814913  46.6196493
  49.8698553  59.6344913  46.4136493  39.2608553  56.7094913  51.5846493
  39.4948553  56.1334913  50.9716493  38.4188553  56.5284913  51.7256493
  39.1708553  56.5974913  51.5146493  46.8878553  64.3274913  54.0366493
  47.7588553  64.2914913  54.0006493  46.6688553  64.7474913  53.3046493
  46.9848553  64.3834913  53.9236493  42.2428553  66.2714913  37.7006493
  42.9598553  65.9244913  37.3446493  42.2088553  67.0714913  37.3526493
  42.3438553  66.3384913  37.5966493  43.6518553  54.9124913  21.9394083
  43.4068553  55.4004913  21.2594083  44.5148553  54.8394913  21.8394083
  43.7428553  54.9734913  21.8244083  43.4608553  61.8284913  26.6104083
  42.9368553  62.4244913  26.9734083  43.8578553  61.4604913  27.2944083
  43.4418553  61.8624913  26.7654083  33.3298553  65.9684913  22.0664083
  32.8888553  66.0864913  22.8094083  33.0468553  65.1934913  21.7814083
  33.2228553  65.8714913  22.1344083  49.6048553  69.2694913  19.5814083
  50.3058553  68.7504913  19.5774083  49.0178553  68.8244913  19.1124083
  49.6218553  69.1264913  19.5114083  33.0728553  59.7604913  18.5734083
  32.2948553  59.9224913  18.2134083  33.1118553  58.8894913  18.5954083
  32.9638553  59.6554913  18.5234083  36.2118553  65.0234913  17.2454083
  35.8198553  64.6524913  16.5594083  36.1318553  64.4254913  17.8744083
  36.1418553  64.8804913  17.2364083  46.1318553  62.8954913  23.2864083
  46.2118553  62.8994913  22.4174083  45.5478553  62.2634913  23.4354083
  46.0568553  62.8024913  23.1804083  35.8388553  66.6644913  21.1454083
  36.4468553  66.4944913  21.7484083  35.0878553  66.5244913  21.5664083
  35.8178553  66.6184913  21.2964083  40.1208553  55.9994913  21.0944083
  40.0508553  56.6764913  20.5484083  40.8618553  55.6114913  20.8454083
  40.2198553  56.0424913  20.9764083  33.2698553  68.7034913  28.3214083
  33.3988553  68.4234913  29.1374083  32.6598553  68.1624913  28.0124083
  33.1988553  68.5824913  28.3964083  39.8438553  66.2284913  33.3884083
  39.6078553  66.2254913  34.2284083  39.0958553  66.0804913  32.9644083
  39.6978553  66.2054913  33.4494083  34.7158553  63.2244913  22.5234083
  34.2538553  62.8324913  21.8964083  35.4158553  62.7114913  22.6154083
  34.7508553  63.0914913  22.4444083  39.2238553  58.8344913  27.8704083
  39.9018553  58.8524913  27.3214083  39.1788553  57.9984913  28.1154083
  39.3168553  58.7134913  27.8254083  36.7168553  61.3244913  22.5464083
  37.5338553  61.1374913  22.7894083  36.2398553  60.7104913  22.9424083
  36.7668553  61.2064913  22.6414083  40.9208553  67.3054913  25.1564083
  41.2688553  66.5064913  25.1864083  41.5858553  67.8094913  24.9014083
  41.0708553  67.2614913  25.1234083  40.9778553  66.7544913  21.3674083
  41.3088553  66.1104913  21.8534083  41.2178553  66.5434913  20.5564083
  41.0618553  66.6284913  21.3194083  42.9458553  60.8854913  32.7064083
  42.0978553  60.7864913  32.5284083  42.9748553  61.6304913  33.1604083
  42.8248553  60.9814913  32.7474083  37.3138553  56.4184913  21.8124083
  37.0178553  56.9194913  21.1624083  38.1808553  56.4964913  21.7554083
  37.3978553  56.5044913  21.7084083  47.5038553  53.8454913  31.8204083
  47.3458553  54.6144913  31.4384083  46.7318553  53.6254913  32.1644083
  47.3658553  53.9264913  31.8154083  40.2928553  55.5604913  24.0354083
  40.3658553  56.4204913  24.1644083  40.2548553  55.4854913  23.1674083
  40.2978553  55.6764913  23.9264083  44.9658553  58.4864913  16.3344083
  44.5158553  59.1674913  16.6414083  45.0798553  57.9824913  17.0374083
  44.9168553  58.5124913  16.4834083  33.1718553  60.9854913  25.5364083
  32.9158553  61.8164913  25.4614083  32.5078553  60.6024913  25.9534083
  33.0358553  61.0514913  25.5874083  38.9218553  68.5394913  20.9164083
  38.3428553  68.2644913  21.5084083  39.5458553  67.9304913  20.9414083
  38.9288553  68.4094913  21.0074083  36.2008553  55.8024913  26.0274083
  35.6798553  55.1744913  25.7194083  36.7918553  55.3654913  26.4984083
  36.2118553  55.6444913  26.0514083  39.5068553  57.9354913  35.3254083
  39.6238553  57.4814913  34.5894083  39.7948553  58.7334913  35.1224083
  39.5668553  57.9864913  35.1864083  50.3598553  58.4594913  22.6294083
  50.0138553  59.1374913  23.0554083  49.7238553  57.8614913  22.6454083
  50.2148553  58.4714913  22.6944083  35.2398553  57.5324913  34.3094083
  34.4618553  57.1424913  34.2374083  35.7308553  57.1204913  33.7184083
  35.1968553  57.4134913  34.2114083  35.4448553  67.8524913  24.8674083
  35.8678553  67.4964913  24.1934083  35.7688553  67.4304913  25.5594083
  35.5548553  67.7374913  24.8704083  41.8888553  55.1754913  33.4774083
  42.0668553  54.3664913  33.2024083  41.7458553  55.6164913  32.7384083
  41.8938553  55.1214913  33.3274083  42.4828553  60.1014913  22.2504083
  42.7698553  59.8694913  21.4604083  43.2148553  60.1804913  22.7194083
  42.6328553  60.0784913  22.2034083  43.2048553  60.4404913  17.3714083
  43.4858553  61.2284913  17.6204083  42.4288553  60.6054913  17.0084083
  43.1318553  60.5814913  17.3544083  50.0348553  56.7824913  27.9984083
  50.7918553  56.8544913  27.5704083  50.0978553  56.0094913  28.3974083
  50.1558553  56.6794913  27.9934083  32.5878553  58.0804913  31.8954083
  32.5838553  58.6674913  32.5414083  33.1818553  58.3924913  31.3384083
  32.6748553  58.2134913  31.9084083  44.9258553  68.4144913  32.4374083
  44.8918553  68.7964913  33.2214083  45.7798553  68.3724913  32.2664083
  45.0468553  68.4644913  32.5284083  42.0638553  68.6114913  17.1874083
  41.8828553  69.1564913  17.8444083  42.8298553  68.9014913  16.8864083
  42.1498553  68.7354913  17.2404083  45.5708553  56.5074913  18.2414083
  46.1108553  55.8254913  18.3174083  45.6328553  56.9054913  19.0154083
  45.6598553  56.4654913  18.3674083  33.5248553  57.6754913  20.8104083
  33.4108553  56.8114913  20.8414083  33.0498553  57.9694913  21.4804083
  33.4378553  57.5914913  20.9134083  42.8288553  58.8834913  19.5554083
  42.3208553  58.2214913  19.3014083  42.8808553  59.3874913  18.8454083
  42.7618553  58.8604913  19.4134083  42.8288553  55.8244913  19.4464083
  42.3738553  55.4224913  18.8204083  43.6018553  55.9794913  19.0714083
  42.8758553  55.7884913  19.2984083  41.4268553  58.1914913  23.9684083
  41.5008553  58.7594913  23.3104083  41.5478553  58.6834913  24.6784083
  41.4548553  58.3484913  23.9764083  46.6518553  68.0264913  22.3804083
  47.3528553  67.5444913  22.5694083  45.9918553  67.4574913  22.4254083
  46.6578553  67.8714913  22.4144083  37.0278553  68.9364913  31.5924083
  37.8688553  68.9994913  31.3704083  36.9908553  69.3334913  32.3684083
  37.1468553  69.0044913  31.6744083  36.0348553  54.0144913  22.3164083
  36.5708553  54.7024913  22.3064083  36.0378553  53.7404913  21.4884083
  36.1138553  54.0754913  22.1924083  38.9908553  64.4474913  26.3414083
  39.1628553  64.2374913  27.1704083  38.3358553  63.9134913  26.1254083
  38.9198553  64.3374913  26.4324083  45.2188553  58.3614913  29.8564083
  45.1238553  58.6804913  30.6624083  44.6258553  57.7224913  29.8184083
  45.1168553  58.3134913  29.9704083  39.7408553  64.3854913  28.9314083
  39.7938553  65.2324913  29.1334083  39.4558553  64.0154913  29.6684083
  39.7068553  64.4554913  29.0694083  45.9178553  65.0804913  28.0614083
  45.4038553  64.6684913  28.6324083  45.7918553  65.9244913  28.2424083
  45.8238553  65.1444913  28.1724083  46.4748553  54.3054913  22.6924083
  46.5238553  53.9874913  23.5034083  46.7978553  53.6614913  22.1994083
  46.5298553  54.1634913  22.7394083  32.5618553  68.7564913  35.1424083
  33.3178553  69.1054913  35.4004083  32.7388553  67.9034913  35.0854083
  32.6998553  68.6814913  35.1724083  48.9388553  58.5414913  31.0004083
  49.7108553  58.3164913  31.3374083  48.4638553  58.7584913  31.7004083
  48.9828553  58.5404913  31.1534083  36.4828553  57.8244913  23.9704083
  36.7548553  57.3944913  23.2624083  36.3068553  57.1884913  24.5414083
  36.4968553  57.6674913  23.9504083  49.1708553  65.5194913  18.1884083
  49.2898553  65.2324913  19.0034083  49.9778553  65.5404913  17.8584083
  49.3068553  65.4804913  18.2604083  36.3068553  65.2514913  23.5194083
  37.1578553  65.1714913  23.3464083  35.9498553  64.5694913  23.1074083
  36.3798553  65.1384913  23.4324083  34.6238553  58.9264913  27.0524083
  35.4668553  59.1464913  27.0094083  34.2348553  59.4994913  26.5214083
  34.6908553  59.0434913  26.9674083  47.0658553  62.0564913  17.7734083
  46.8458553  62.7874913  17.3514083  46.6178553  62.1074913  18.5204083
  46.9668553  62.1714913  17.8214083  38.6748553  65.2584913  21.7544083
  39.3878553  65.7534913  21.8444083  38.8968553  64.6914913  21.1284083
  38.8128553  65.2474913  21.6754083  51.2528553  56.9174913  17.2264083
  50.5908553  56.3494913  17.2494083  51.0598553  57.4294913  16.5464083
  51.1268553  56.9094913  17.1294083  32.8308553  66.9014913  25.0744083
  32.1638553  67.3894913  25.3504083  33.5108553  67.4464913  25.1034083
  32.8328553  67.0534913  25.1194083  40.4778553  60.6114913  35.1704083
  39.9938553  61.1884913  35.6124083  40.4498553  60.9064913  34.3494083
  40.4018553  60.7404913  35.1144083  51.5758553  61.2954913  29.7824083
  51.7908553  60.4954913  29.5064083  50.7258553  61.3554913  29.5934083
  51.4818553  61.1864913  29.7134083  32.8968553  63.5854913  20.1774083
  32.7118553  62.7464913  20.3294083  33.5558553  63.5494913  19.6074083
  32.9668553  63.4564913  20.1154083  49.2548553  56.4754913  19.5054083
  50.0008553  56.0684913  19.7044083  49.5178553  57.1904913  19.0804083
  49.4038553  56.5214913  19.4724083  43.1978553  68.9614913  24.0814083
  42.6748553  69.5954913  23.7884083  43.5078553  68.5974913  23.3524083
  43.1658553  69.0014913  23.9304083  33.0688553  67.7494913  19.7524083
  33.6208553  68.3184913  20.1164083  32.8368553  67.2344913  20.4174083
  33.1158553  67.7574913  19.9044083  37.2728553  66.7494913  26.8414083
  37.7398553  67.0384913  27.5194083  37.8448553  66.2714913  26.3874083
  37.4268553  66.7214913  26.8744083  45.7088553  58.7634913  24.5784083
  46.0528553  58.9154913  25.3654083  45.2558553  58.0254913  24.6914083
  45.6928553  58.6764913  24.7114083  32.8988553  66.1984913  17.3804083
  33.6548553  65.7664913  17.4384083  32.9138553  66.7304913  18.0714083
  33.0128553  66.2134913  17.4914083  33.8388553  64.4194913  25.3854083
  34.2698553  64.2904913  24.6384083  33.6338553  65.2674913  25.3594083
  33.8718553  64.5254913  25.2714083  40.1848553  57.9834913  19.0354083
  40.1828553  57.8664913  18.1704083  40.0038553  58.8314913  19.1274083
  40.1578553  58.0914913  18.9214083  37.9228553  67.9354913  23.6674083
  38.0488553  68.7784913  23.8544083  38.5908553  67.5364913  24.0634083
  38.0408553  68.0014913  23.7534083  36.0528553  61.4184913  33.5294083
  35.5168553  60.9124913  33.9974083  36.0728553  61.0284913  32.7494083
  35.9758553  61.2854913  33.4834083  36.5378553  60.8154913  18.6694083
  36.4098553  60.3674913  19.4074083  35.9558553  60.4734913  18.1174083
  36.4328553  60.6984913  18.6974083  36.7048553  62.6454913  25.2684083
  35.9238553  62.5864913  24.8854083  36.7768553  61.8934913  25.7054083
  36.5998553  62.5264913  25.2764083  37.1348553  62.3824913  28.7364083
  37.1598553  61.7074913  28.1854083  36.4888553  62.8784913  28.4244083
  37.0438553  62.3554913  28.6094083  47.0298553  60.0954913  27.1324083
  46.3678553  60.4234913  27.5954083  47.2168553  60.7294913  26.5634083
  46.9598553  60.2374913  27.1164083  43.6748553  56.0014913  30.5614083
  43.8238553  55.1764913  30.3184083  44.0538553  56.0564913  31.3454083
  43.7528553  55.8874913  30.6414083  45.2228553  58.0644913  20.6434083
  45.7128553  58.7814913  20.5664083  44.4328553  58.3254913  20.3804083
  45.1788553  58.2084913  20.5934083  34.9338553  63.7374913  34.2954083
  34.8968553  64.2384913  33.5814083  35.2648553  62.9854913  34.0004083
  34.9768553  63.6994913  34.1464083  46.5368553  65.9424913  32.5534083
  47.0208553  66.6604913  32.6514083  46.9308553  65.5154913  31.9024083
  46.6668553  65.9854913  32.4714083  40.8328553  68.7874913  33.7304083
  41.1868553  68.6094913  34.5074083  40.3968553  68.0584913  33.5314083
  40.8208553  68.6534913  33.8164083  41.8048553  59.5344913  26.3684083
  42.2848553  60.2334913  26.5764083  42.1778553  58.8874913  26.8194083
  41.9308553  59.5424913  26.4654083  43.9938553  62.7034913  18.6424083
  43.9858553  63.4254913  18.1524083  43.3548553  62.8384913  19.2194083
  43.8988553  62.8304913  18.6554083  48.9658553  66.5734913  22.6234083
  49.3218553  66.2234913  23.3384083  48.9578553  65.9124913  22.0534083
  49.0178553  66.4234913  22.6444083  45.0238553  66.4904913  25.8674083
  44.2268553  66.7144913  26.1414083  45.2818553  65.8964913  26.4524083
  44.9438553  66.4354913  25.9944083  38.5868553  55.0454913  18.3034083
  38.6838553  54.9384913  19.1644083  37.8788553  55.5514913  18.2384083
  38.4968553  55.1044913  18.4214083  48.2838553  64.4884913  30.7134083
  48.3388553  64.6134913  29.8514083  49.0368553  64.8084913  31.0154083
  48.4028553  64.5534913  30.6304083  49.3158553  54.7864913  33.7004083
  48.6788553  54.3864913  33.2584083  49.3418553  54.3554913  34.4584083
  49.2258553  54.6644913  33.7464083  35.7088553  63.3524913  19.5464083
  36.0328553  62.5734913  19.3244083  36.3548553  63.7204913  20.0014083
  35.8518553  63.2914913  19.5804083  44.0148553  64.2944913  30.3134083
  43.8598553  64.9044913  30.9174083  44.5488553  63.7364913  30.7194083
  44.0708553  64.3024913  30.4624083  32.7058553  55.0134913  20.5144083
  32.8348553  54.3054913  20.0224083  32.3388553  54.6954913  21.2394083
  32.6708553  54.8614913  20.5494083  42.3988553  62.6944913  20.9714083
  42.4578553  63.3444913  21.5504083  42.2098553  61.9984913  21.4624083
  42.3798553  62.6874913  21.1294083  47.6248553  67.0234913  26.8404083
  47.1458553  67.3214913  26.1744083  47.2688553  66.2474913  27.0184083
  47.5018553  66.9524913  26.7684083  36.8948553  57.2114913  17.4834083
  36.3838553  57.2644913  16.7774083  37.6788553  57.4514913  17.1874083
  36.9348553  57.2544913  17.3354083  41.6218553  64.7414913  25.4024083
  40.7748553  64.5474913  25.4834083  41.9458553  64.5764913  26.1954083
  41.5438553  64.6884913  25.5314083  35.4698553  64.4344913  27.7184083
  36.1918553  64.9224913  27.6814083  35.1998553  64.4044913  26.8894083
  35.5368553  64.5024913  27.5904083  38.6998553  59.6054913  24.4534083
  39.5458553  59.4154913  24.5514083  38.3298553  58.8284913  24.3154083
  38.7698553  59.4624913  24.4474083  33.5208553  60.9434913  21.1084083
  34.0098553  60.6514913  21.7694083  33.6498553  60.3504913  20.4814083
  33.6118553  60.8124913  21.1134083  48.5558553  63.9654913  27.9594083
  48.5488553  63.1894913  28.3574083  47.7148553  64.1994913  27.9524083
  48.4308553  63.8854913  28.0174083  38.0458553  62.3774913  16.5944083
  37.4358553  61.9724913  17.0684083  37.6598553  62.4954913  15.8214083
  37.8988553  62.3344913  16.5504083  34.8648553  65.4864913  31.9964083
  34.4438553  64.9684913  31.4354083  34.5128553  66.2724913  31.8534083
  34.7508553  65.5264913  31.8924083  49.8118553  64.0364913  25.3964083
  49.5258553  64.4374913  26.1164083  50.6718553  63.9744913  25.5234083
  49.8968553  64.0864913  25.5214083  39.5008553  60.8384913  19.3044083
  39.7728553  61.6644913  19.3714083  38.6378553  60.9134913  19.2084083
  39.4138553  60.9714913  19.2994083  47.4738553  57.9604913  33.9364083
  46.9488553  58.4194913  34.4604083  47.1128553  57.1654913  33.9304083
  47.3428553  57.9104913  34.0124083  32.9808553  56.8084913  25.8404083
  33.0248553  57.1524913  25.0394083  33.7358553  57.0454913  26.2074083
  33.0988553  56.8944913  25.7764083  45.9658553  61.5294913  34.0124083
  46.0388553  61.6334913  34.8754083  45.3318553  62.0874913  33.7914083
  45.8828553  61.6274913  34.1074083  48.2338553  61.8484913  32.3774083
  48.5528553  62.6344913  32.5804083  47.8638553  61.5784913  33.1204083
  48.2268553  61.9244913  32.5174083  47.5478553  68.2724913  17.9074083
  47.8818553  67.4664913  17.9424083  46.7928553  68.2004913  18.3374083
  47.4858553  68.1424913  17.9764083  48.0298553  60.1064913  23.5664083
  47.2848553  59.7834913  23.8844083  48.0318553  60.9324913  23.8464083
  47.9198553  60.1804913  23.6544083  50.9318553  62.3904913  35.1124083
  50.8798553  62.0494913  34.3114083  51.6688553  62.8574913  35.0904083
  51.0328553  62.4094913  34.9904083  50.4698553  66.0664913  31.3184083
  51.0978553  65.5174913  31.0624083  50.4088553  66.6314913  30.6564083
  50.5538553  66.0694913  31.1824083  44.9218553  66.1474913  17.3104083
  45.6058553  65.6334913  17.1414083  44.5048553  66.1934913  16.5454083
  44.9608553  66.0784913  17.1724083  39.6038553  67.2974913  28.6144083
  39.3058553  67.8894913  29.1814083  39.6588553  67.7394913  27.8654083
  39.5678553  67.4504913  28.5874083  37.5828553  66.2474913  32.0124083
  36.7768553  65.9574913  32.1794083  37.4938553  67.1154913  32.0184083
  37.4508553  66.3324913  32.0374083  46.9418553  56.4364913  31.0274083
  47.6858553  56.8884913  30.9644083  46.3758553  56.9064913  30.5584083
  46.9688553  56.5734913  30.9494083  42.1198553  63.7204913  28.1054083
  42.5958553  64.0944913  28.7334083  41.2968553  63.8544913  28.3644083
  42.0688553  63.7954913  28.2364083  38.8298553  59.3234913  30.8464083
  38.9908553  58.5794913  31.2734083  38.7848553  59.0744913  30.0114083
  38.8468553  59.1764913  30.7864083  48.2268553  54.4164913  28.6974083
  47.9468553  55.2414913  28.6534083  48.9428553  54.4694913  29.1934083
  48.2918553  54.5464913  28.7644083  40.5818553  55.1314913  30.7264083
  41.2868553  55.4514913  30.3244083  40.8228553  54.3244913  30.9534083
  40.7208553  55.0594913  30.7004083  43.8758553  65.9754913  33.7114083
  44.6328553  66.2614913  33.3854083  43.3288553  66.0274913  33.0334083
  43.9068553  66.0254913  33.5624083  47.7848553  68.5254913  32.2154083
  48.1308553  68.7954913  32.9694083  48.0788553  69.1074913  31.6354083
  47.8798553  68.6514913  32.2414083  49.6478553  60.6714913  17.5544083
  50.0258553  61.3484913  17.1544083  48.8058553  60.8954913  17.5854083
  49.5788553  60.8044913  17.4994083  41.1608553  64.1174913  16.6374083
  40.3558553  63.9404913  16.3524083  41.1278553  64.9684913  16.8294083
  41.0368553  64.2164913  16.6244083  37.0908553  60.1844913  26.7874083
  37.5308553  60.0814913  26.0414083  37.6358553  59.8714913  27.3924083
  37.2358553  60.1234913  26.7664083  45.1068553  59.2864913  32.3794083
  44.4588553  59.7564913  32.7274083  45.6718553  59.1974913  33.0384083
  45.0948553  59.3424913  32.5284083  44.7948553  60.8234913  28.6774083
  45.0968553  61.2434913  29.3804083  44.8308553  59.9834913  28.9094083
  44.8448553  60.7614913  28.8154083  47.3428553  60.2704913  20.9294083
  47.5498553  60.0694913  21.7534083  48.0988553  60.5384913  20.5874083
  47.4848553  60.2804913  21.0004083  40.6378553  55.1694913  26.8344083
  39.8118553  55.0204913  27.0714083  40.5978553  55.2044913  25.9634083
  40.5098553  55.1524913  26.7404083  48.3648553  56.3534913  22.4034083
  47.6508553  55.8824913  22.5744083  48.2028553  56.6944913  21.6174083
  48.2358553  56.3344913  22.3124083  48.8078553  64.2974913  20.7834083
  49.2838553  63.5684913  20.7354083  47.9868553  64.0114913  20.7074083
  48.7568553  64.1474913  20.7644083  42.2788553  66.2094913  31.6224083
  41.4838553  66.1454913  31.9734083  42.3498553  67.0564913  31.4274083
  42.1718553  66.3244913  31.6454083  33.2028553  55.5674913  32.8694083
  33.0628553  56.3624913  32.5384083  32.4168553  55.3244913  33.1584083
  33.0658553  55.6494913  32.8634083  36.2668553  58.3114913  20.0944083
  36.3928553  57.9824913  19.2964083  35.4548553  58.0624913  20.2934083
  36.1658553  58.2264913  20.0064083  45.0238553  65.4644913  23.1384083
  45.0998553  65.8054913  23.9374083  45.1928553  64.6174913  23.2594083
  45.0598553  65.3894913  23.2744083  42.5458553  64.7384913  22.7034083
  42.2478553  64.4234913  23.4604083  43.2408553  65.2114913  22.9384083
  42.6048553  64.7614913  22.8504083  42.7678553  68.8564913  30.7304083
  43.4548553  68.7424913  31.2554083  42.9018553  69.6474913  30.3864083
  42.8888553  68.9564913  30.7574083  50.9438553  61.4654913  32.5414083
  50.0888553  61.3434913  32.6674083  51.0968553  61.0704913  31.7784083
  50.8398553  61.3884913  32.4474083  45.4568553  62.1304913  31.1174083
  45.2018553  61.4114913  31.5394083  46.2778553  62.2464913  31.3874083
  45.5408553  62.0414913  31.2194083  43.3908553  63.3204913  34.3044083
  43.7138553  64.0064913  33.8724083  42.6868553  63.6434913  34.7064083
  43.3338553  63.4694913  34.2994083  43.1758553  66.7844913  28.1634083
  42.4818553  67.1864913  28.5064083  43.8528553  67.2174913  28.5024083
  43.1728553  66.9074913  28.2644083  48.5528553  69.3774913  34.7434083
  49.3288553  68.9874913  34.8264083  48.0838553  69.0414913  35.3984083
  48.5978553  69.2704913  34.8524083  36.2438553  60.3224913  30.5104083
  36.6188553  60.9414913  30.0234083  36.9178553  59.8484913  30.7954083
  36.3988553  60.3444913  30.4804083  34.0188553  58.7704913  29.7854083
  34.0958553  58.6014913  28.9324083  34.7648553  59.1764913  29.9824083
  34.1398553  58.8054913  29.6884083  49.5778553  61.4104913  20.2254083
  49.6808553  61.3524913  19.3614083  50.3188553  61.0784913  20.5434083
  49.7028553  61.3534913  20.1444083  36.5728553  56.1804913  32.1964083
  36.4918553  55.3364913  32.4024083  36.2588553  56.2244913  31.3834083
  36.5148553  56.0624913  32.1064083  43.4978553  68.3754913  21.3324083
  43.2928553  69.2084913  21.1734083  42.7228553  67.9934913  21.4544083
  43.3528553  68.4424913  21.3274083  48.6798553  61.5564913  29.5814083
  48.6778553  60.6934913  29.7054083  48.7468553  61.8804913  30.3884083
  48.6898553  61.4764913  29.7184083  33.4158553  63.9964913  30.0094083
  33.7358553  64.2154913  29.2284083  33.3158553  63.1314913  29.9544083
  33.4478553  63.9014913  29.8864083  34.8718553  59.9324913  16.6274083
  34.1998553  59.9464913  17.1834083  34.9668553  59.0844913  16.4434083
  34.7868553  59.8094913  16.6824083  44.5588553  56.3564913  33.3634083
  44.6508553  57.0684913  33.8574083  43.9218553  55.9114913  33.7604083
  44.4778553  56.3954913  33.4954083  43.5528553  56.5464913  24.2174083
  42.8528553  57.0644913  24.1614083  43.5908553  56.1664913  23.4334083
  43.4548553  56.5674913  24.0934083  38.8598553  68.6374913  17.7414083
  39.3008553  68.7174913  18.4894083  38.0548553  68.4214913  17.9994083
  38.8058553  68.6174913  17.8904083  47.1508553  57.0624913  27.0174083
  48.0058553  57.1614913  27.1624083  46.7818553  57.6154913  27.5824083
  47.2228553  57.1594913  27.1224083  38.1788553  63.2884913  31.3944083
  37.7828553  64.0624913  31.4694083  37.7728553  62.9154913  30.7184083
  38.0608553  63.3474913  31.3054083  47.4548553  62.3424913  25.5084083
  48.1208553  62.8834913  25.6684083  47.1098553  62.6534913  24.7694083
  47.5018553  62.4684913  25.4234083  36.1888553  67.7074913  18.3424083
  35.9448553  67.4004913  19.1224083  36.1558553  67.0044913  17.8264083
  36.1478553  67.5584913  18.3814083  39.0078553  65.9524913  17.0854083
  38.1898553  65.6844913  17.2254083  38.9798553  66.8044913  17.2704083
  38.8828553  66.0394913  17.1334083  38.6078553  56.2654913  28.8444083
  37.7438553  56.3494913  28.9244083  38.8278553  55.7514913  29.5134083
  38.5128553  56.2024913  28.9554083  50.6258553  54.9004913  30.1734083
  50.5738553  54.8564913  31.0434083  51.3128553  54.3974913  29.9834083
  50.7198553  54.8204913  30.2734083  42.7108553  57.0134913  27.2184083
  41.9738553  56.5594913  27.3314083  43.2818553  56.6114913  27.7414083
  42.6858553  56.8864913  27.3124083  45.4428553  67.8614913  29.0064083
  45.6488553  68.1624913  29.7984083  45.3818553  68.5834913  28.5214083
  45.4638553  68.0124913  29.0514083  40.2138553  61.3424913  32.4224083
  39.8918553  60.7664913  31.8524083  39.8548553  62.0974913  32.1764083
  40.1138553  61.3684913  32.3024083  41.0098553  54.5944913  17.0494083
  41.0878553  54.8414913  16.2164083  40.2668553  54.9714913  17.3074083
  40.9118553  54.6864913  16.9644083  50.2548553  66.5004913  28.4644083
  50.2228553  65.6384913  28.3294083  49.5618553  66.8024913  28.0304083
  50.1478553  66.4174913  28.3804083  48.3598553  69.7604913  27.2614083
  48.8868553  69.6774913  26.5704083  47.9688553  68.9824913  27.3154083
  48.3798553  69.6334913  27.1674083  35.8278553  56.3484913  29.4924083
  35.4848553  55.5814913  29.2584083  35.1328553  56.8724913  29.5564083
  35.6748553  56.3124913  29.4674083  44.8738553  55.2044913  26.4694083
  45.5438553  55.7484913  26.5964083  44.3708553  55.6284913  25.8964083
  44.8988553  55.3474913  26.4034083  44.2328553  61.0124913  23.9624083
  44.7838553  60.4054913  24.2624083  43.8078553  61.2754913  24.6774083
  44.2518553  60.9614913  24.1114083  34.4808553  59.6624913  23.4484083
  34.1128553  59.9644913  24.1794083  35.0148553  59.0334913  23.7324083
  34.5048553  59.6144913  23.5984083  34.1688553  68.0704913  30.9594083
  33.5948553  68.4864913  31.4684083  34.9018553  68.5354913  31.0544083
  34.1928553  68.2004913  31.0484083  46.2028553  62.8434913  20.5244083
  46.2708553  61.9934913  20.7054083  45.3798553  62.9294913  20.2464083
  46.0908553  62.7304913  20.5104083  40.1218553  63.7344913  19.4624083
  40.2218553  63.8734913  18.6074083  40.9398553  63.6744913  19.7584083
  40.2568553  63.7454913  19.3794083  49.4768553  64.2164913  33.6754083
  50.1108553  64.0464913  34.2494083  49.8938553  64.6194913  33.0234083
  49.6318553  64.2514913  33.6644083  45.3568553  68.0634913  19.2644083
  45.1058553  67.9354913  20.0904083  45.0398553  67.3684913  18.8434083
  45.2728553  67.9424913  19.3244083  50.1018553  58.7804913  34.4134083
  49.9058553  59.4244913  34.9684083  49.3798553  58.2904913  34.4054083
  49.9668553  58.8034913  34.4944083  50.0008553  59.7214913  27.3844083
  49.1678553  59.9714913  27.3124083  49.9448553  58.8814913  27.6134083
  49.8698553  59.6344913  27.4074083  39.2608553  56.7094913  32.5784083
  39.4948553  56.1334913  31.9654083  38.4188553  56.5284913  32.7194083
  39.1708553  56.5974913  32.5084083  46.8878553  64.3274913  35.0304083
  47.7588553  64.2914913  34.9944083  46.6688553  64.7474913  34.2984083
  46.9848553  64.3834913  34.9174083  42.2428553  66.2714913  18.6944083
  42.9598553  65.9244913  18.3384083  42.2088553  67.0714913  18.3464083
  42.3438553  66.3384913  18.5904083  43.6518553  54.9124913   2.9331673
  43.4068553  55.4004913   2.2531673  44.5148553  54.8394913   2.8331673
  43.7428553  54.9734913   2.8181673  43.4608553  61.8284913   7.6041673
  42.9368553  62.4244913   7.9671673  43.8578553  61.4604913   8.2881673
  43.4418553  61.8624913   7.7591673  33.3298553  65.9684913   3.0601673
  32.8888553  66.0864913   3.8031673  33.0468553  65.1934913   2.7751673
  33.2228553  65.8714913   3.1281673  46.1318553  62.8954913   4.2801673
  46.2118553  62.8994913   3.4111673  45.5478553  62.2634913   4.4291673
  46.0568553  62.8024913   4.1741673  35.8388553  66.6644913   2.1391673
  36.4468553  66.4944913   2.7421673  35.0878553  66.5244913   2.5601673
  35.8178553  66.6184913   2.2901673  40.1208553  55.9994913   2.0881673
  40.0508553  56.6764913   1.5421673  40.8618553  55.6114913   1.8391673
  40.2198553  56.0424913   1.9701673  33.2698553  68.7034913   9.3151673
  33.3988553  68.4234913  10.1311673  32.6598553  68.1624913   9.0061673
  33.1988553  68.5824913   9.3901673  39.8438553  66.2284913  14.3821673
  39.6078553  66.2254913  15.2221673  39.0958553  66.0804913  13.9581673
  39.6978553  66.2054913  14.4431673  34.7158553  63.2244913   3.5171673
  34.2538553  62.8324913   2.8901673  35.4158553  62.7114913   3.6091673
  34.7508553  63.0914913   3.4381673  39.2238553  58.8344913   8.8641673
  39.9018553  58.8524913   8.3151673  39.1788553  57.9984913   9.1091673
  39.3168553  58.7134913   8.8191673  36.7168553  61.3244913   3.5401673
  37.5338553  61.1374913   3.7831673  36.2398553  60.7104913   3.9361673
  36.7668553  61.2064913   3.6351673  40.9208553  67.3054913   6.1501673
  41.2688553  66.5064913   6.1801673  41.5858553  67.8094913   5.8951673
  41.0708553  67.2614913   6.1171673  40.9778553  66.7544913   2.3611673
  41.3088553  66.1104913   2.8471673  41.2178553  66.5434913   1.5501673
  41.0618553  66.6284913   2.3131673  42.9458553  60.8854913  13.7001673
  42.0978553  60.7864913  13.5221673  42.9748553  61.6304913  14.1541673
  42.8248553  60.9814913  13.7411673  37.3138553  56.4184913   2.8061673
  37.0178553  56.9194913   2.1561673  38.1808553  56.4964913   2.7491673
  37.3978553  56.5044913   2.7021673  47.5038553  53.8454913  12.8141673
  47.3458553  54.6144913  12.4321673  46.7318553  53.6254913  13.1581673
  47.3658553  53.9264913  12.8091673  40.2928553  55.5604913   5.0291673
  40.3658553  56.4204913   5.1581673  40.2548553  55.4854913   4.1611673
  40.2978553  55.6764913   4.9201673  33.1718553  60.9854913   6.5301673
  32.9158553  61.8164913   6.4551673  32.5078553  60.6024913   6.9471673
  33.0358553  61.0514913   6.5811673  38.9218553  68.5394913   1.9101673
  38.3428553  68.2644913   2.5021673  39.5458553  67.9304913   1.9351673
  38.9288553  68.4094913   2.0011673  36.2008553  55.8024913   7.0211673
  35.6798553  55.1744913   6.7131673  36.7918553  55.3654913   7.4921673
  36.2118553  55.6444913   7.0451673  39.5068553  57.9354913  16.3191673
  39.6238553  57.4814913  15.5831673  39.7948553  58.7334913  16.1161673
  39.5668553  57.9864913  16.1801673  50.3598553  58.4594913   3.6231673
  50.0138553  59.1374913   4.0491673  49.7238553  57.8614913   3.6391673
  50.2148553  58.4714913   3.6881673  35.2398553  57.5324913  15.3031673
  34.4618553  57.1424913  15.2311673  35.7308553  57.1204913  14.7121673
  35.1968553  57.4134913  15.2051673  35.4448553  67.8524913   5.8611673
  35.8678553  67.4964913   5.1871673  35.7688553  67.4304913   6.5531673
  35.5548553  67.7374913   5.8641673  41.8888553  55.1754913  14.4711673
  42.0668553  54.3664913  14.1961673  41.7458553  55.6164913  13.7321673
  41.8938553  55.1214913  14.3211673  42.4828553  60.1014913   3.2441673
  42.7698553  59.8694913   2.4541673  43.2148553  60.1804913   3.7131673
  42.6328553  60.0784913   3.1971673  50.0348553  56.7824913   8.9921673
  50.7918553  56.8544913   8.5641673  50.0978553  56.0094913   9.3911673
  50.1558553  56.6794913   8.9871673  32.5878553  58.0804913  12.8891673
  32.5838553  58.6674913  13.5351673  33.1818553  58.3924913  12.3321673
  32.6748553  58.2134913  12.9021673  44.9258553  68.4144913  13.4311673
  44.8918553  68.7964913  14.2151673  45.7798553  68.3724913  13.2601673
  45.0468553  68.4644913  13.5221673  33.5248553  57.6754913   1.8041673
  33.4108553  56.8114913   1.8351673  33.0498553  57.9694913   2.4741673
  33.4378553  57.5914913   1.9071673  41.4268553  58.1914913   4.9621673
  41.5008553  58.7594913   4.3041673  41.5478553  58.6834913   5.6721673
  41.4548553  58.3484913   4.9701673  46.6518553  68.0264913   3.3741673
  47.3528553  67.5444913   3.5631673  45.9918553  67.4574913   3.4191673
  46.6578553  67.8714913   3.4081673  37.0278553  68.9364913  12.5861673
  37.8688553  68.9994913  12.3641673  36.9908553  69.3334913  13.3621673
  37.1468553  69.0044913  12.6681673  36.0348553  54.0144913   3.3101673
  36.5708553  54.7024913   3.3001673  36.0378553  53.7404913   2.4821673
  36.1138553  54.0754913   3.1861673  38.9908553  64.4474913   7.3351673
  39.1628553  64.2374913   8.1641673  38.3358553  63.9134913   7.1191673
  38.9198553  64.3374913   7.4261673  45.2188553  58.3614913  10.8501673
  45.1238553  58.6804913  11.6561673  44.6258553  57.7224913  10.8121673
  45.1168553  58.3134913  10.9641673  39.7408553  64.3854913   9.9251673
  39.7938553  65.2324913  10.1271673  39.4558553  64.0154913  10.6621673
  39.7068553  64.4554913  10.0631673  45.9178553  65.0804913   9.0551673
  45.4038553  64.6684913   9.6261673  45.7918553  65.9244913   9.2361673
  45.8238553  65.1444913   9.1661673  46.4748553  54.3054913   3.6861673
  46.5238553  53.9874913   4.4971673  46.7978553  53.6614913   3.1931673
  46.5298553  54.1634913   3.7331673  32.5618553  68.7564913  16.1361673
  33.3178553  69.1054913  16.3941673  32.7388553  67.9034913  16.0791673
  32.6998553  68.6814913  16.1661673  48.9388553  58.5414913  11.9941673
  49.7108553  58.3164913  12.3311673  48.4638553  58.7584913  12.6941673
  48.9828553  58.5404913  12.1471673  36.4828553  57.8244913   4.9641673
  36.7548553  57.3944913   4.2561673  36.3068553  57.1884913   5.5351673
  36.4968553  57.6674913   4.9441673  36.3068553  65.2514913   4.5131673
  37.1578553  65.1714913   4.3401673  35.9498553  64.5694913   4.1011673
  36.3798553  65.1384913   4.4261673  34.6238553  58.9264913   8.0461673
  35.4668553  59.1464913   8.0031673  34.2348553  59.4994913   7.5151673
  34.6908553  59.0434913   7.9611673  38.6748553  65.2584913   2.7481673
  39.3878553  65.7534913   2.8381673  38.8968553  64.6914913   2.1221673
  38.8128553  65.2474913   2.6691673  32.8308553  66.9014913   6.0681673
  32.1638553  67.3894913   6.3441673  33.5108553  67.4464913   6.0971673
  32.8328553  67.0534913   6.1131673  40.4778553  60.6114913  16.1641673
  39.9938553  61.1884913  16.6061673  40.4498553  60.9064913  15.3431673
  40.4018553  60.7404913  16.1081673  51.5758553  61.2954913  10.7761673
  51.7908553  60.4954913  10.5001673  50.7258553  61.3554913  10.5871673
  51.4818553  61.1864913  10.7071673  43.1978553  68.9614913   5.0751673
  42.6748553  69.5954913   4.7821673  43.5078553  68.5974913   4.3461673
  43.1658553  69.0014913   4.9241673  37.2728553  66.7494913   7.8351673
  37.7398553  67.0384913   8.5131673  37.8448553  66.2714913   7.3811673
  37.4268553  66.7214913   7.8681673  45.7088553  58.7634913   5.5721673
  46.0528553  58.9154913   6.3591673  45.2558553  58.0254913   5.6851673
  45.6928553  58.6764913   5.7051673  33.8388553  64.4194913   6.3791673
  34.2698553  64.2904913   5.6321673  33.6338553  65.2674913   6.3531673
  33.8718553  64.5254913   6.2651673  37.9228553  67.9354913   4.6611673
  38.0488553  68.7784913   4.8481673  38.5908553  67.5364913   5.0571673
  38.0408553  68.0014913   4.7471673  36.0528553  61.4184913  14.5231673
  35.5168553  60.9124913  14.9911673  36.0728553  61.0284913  13.7431673
  35.9758553  61.2854913  14.4771673  36.7048553  62.6454913   6.2621673
  35.9238553  62.5864913   5.8791673  36.7768553  61.8934913   6.6991673
  36.5998553  62.5264913   6.2701673  37.1348553  62.3824913   9.7301673
  37.1598553  61.7074913   9.1791673  36.4888553  62.8784913   9.4181673
  37.0438553  62.3554913   9.6031673  47.0298553  60.0954913   8.1261673
  46.3678553  60.4234913   8.5891673  47.2168553  60.7294913   7.5571673
  46.9598553  60.2374913   8.1101673  43.6748553  56.0014913  11.5551673
  43.8238553  55.1764913  11.3121673  44.0538553  56.0564913  12.3391673
  43.7528553  55.8874913  11.6351673  34.9338553  63.7374913  15.2891673
  34.8968553  64.2384913  14.5751673  35.2648553  62.9854913  14.9941673
  34.9768553  63.6994913  15.1401673  46.5368553  65.9424913  13.5471673
  47.0208553  66.6604913  13.6451673  46.9308553  65.5154913  12.8961673
  46.6668553  65.9854913  13.4651673  40.8328553  68.7874913  14.7241673
  41.1868553  68.6094913  15.5011673  40.3968553  68.0584913  14.5251673
  40.8208553  68.6534913  14.8101673  41.8048553  59.5344913   7.3621673
  42.2848553  60.2334913   7.5701673  42.1778553  58.8874913   7.8131673
  41.9308553  59.5424913   7.4591673  48.9658553  66.5734913   3.6171673
  49.3218553  66.2234913   4.3321673  48.9578553  65.9124913   3.0471673
  49.0178553  66.4234913   3.6381673  45.0238553  66.4904913   6.8611673
  44.2268553  66.7144913   7.1351673  45.2818553  65.8964913   7.4461673
  44.9438553  66.4354913   6.9881673  48.2838553  64.4884913  11.7071673
  48.3388553  64.6134913  10.8451673  49.0368553  64.8084913  12.0091673
  48.4028553  64.5534913  11.6241673  49.3158553  54.7864913  14.6941673
  48.6788553  54.3864913  14.2521673  49.3418553  54.3554913  15.4521673
  49.2258553  54.6644913  14.7401673  44.0148553  64.2944913  11.3071673
  43.8598553  64.9044913  11.9111673  44.5488553  63.7364913  11.7131673
  44.0708553  64.3024913  11.4561673  42.3988553  62.6944913   1.9651673
  42.4578553  63.3444913   2.5441673  42.2098553  61.9984913   2.4561673
  42.3798553  62.6874913   2.1231673  47.6248553  67.0234913   7.8341673
  47.1458553  67.3214913   7.1681673  47.2688553  66.2474913   8.0121673
  47.5018553  66.9524913   7.7621673  41.6218553  64.7414913   6.3961673
  40.7748553  64.5474913   6.4771673  41.9458553  64.5764913   7.1891673
  41.5438553  64.6884913   6.5251673  35.4698553  64.4344913   8.7121673
  36.1918553  64.9224913   8.6751673  35.1998553  64.4044913   7.8831673
  35.5368553  64.5024913   8.5841673  38.6998553  59.6054913   5.4471673
  39.5458553  59.4154913   5.5451673  38.3298553  58.8284913   5.3091673
  38.7698553  59.4624913   5.4411673  48.5558553  63.9654913   8.9531673
  48.5488553  63.1894913   9.3511673  47.7148553  64.1994913   8.9461673
  48.4308553  63.8854913   9.0111673  34.8648553  65.4864913  12.9901673
  34.4438553  64.9684913  12.4291673  34.5128553  66.2724913  12.8471673
  34.7508553  65.5264913  12.8861673  49.8118553  64.0364913   6.3901673
  49.5258553  64.4374913   7.1101673  50.6718553  63.9744913   6.5171673
  49.8968553  64.0864913   6.5151673  47.4738553  57.9604913  14.9301673
  46.9488553  58.4194913  15.4541673  47.1128553  57.1654913  14.9241673
  47.3428553  57.9104913  15.0061673  32.9808553  56.8084913   6.8341673
  33.0248553  57.1524913   6.0331673  33.7358553  57.0454913   7.2011673
  33.0988553  56.8944913   6.7701673  45.9658553  61.5294913  15.0061673
  46.0388553  61.6334913  15.8691673  45.3318553  62.0874913  14.7851673
  45.8828553  61.6274913  15.1011673  48.2338553  61.8484913  13.3711673
  48.5528553  62.6344913  13.5741673  47.8638553  61.5784913  14.1141673
  48.2268553  61.9244913  13.5111673  48.0298553  60.1064913   4.5601673
  47.2848553  59.7834913   4.8781673  48.0318553  60.9324913   4.8401673
  47.9198553  60.1804913   4.6481673  50.9318553  62.3904913  16.1061673
  50.8798553  62.0494913  15.3051673  51.6688553  62.8574913  16.0841673
  51.0328553  62.4094913  15.9841673  50.4698553  66.0664913  12.3121673
  51.0978553  65.5174913  12.0561673  50.4088553  66.6314913  11.6501673
  50.5538553  66.0694913  12.1761673  39.6038553  67.2974913   9.6081673
  39.3058553  67.8894913  10.1751673  39.6588553  67.7394913   8.8591673
  39.5678553  67.4504913   9.5811673  37.5828553  66.2474913  13.0061673
  36.7768553  65.9574913  13.1731673  37.4938553  67.1154913  13.0121673
  37.4508553  66.3324913  13.0311673  46.9418553  56.4364913  12.0211673
  47.6858553  56.8884913  11.9581673  46.3758553  56.9064913  11.5521673
  46.9688553  56.5734913  11.9431673  42.1198553  63.7204913   9.0991673
  42.5958553  64.0944913   9.7271673  41.2968553  63.8544913   9.3581673
  42.0688553  63.7954913   9.2301673  38.8298553  59.3234913  11.8401673
  38.9908553  58.5794913  12.2671673  38.7848553  59.0744913  11.0051673
  38.8468553  59.1764913  11.7801673  48.2268553  54.4164913   9.6911673
  47.9468553  55.2414913   9.6471673  48.9428553  54.4694913  10.1871673
  48.2918553  54.5464913   9.7581673  40.5818553  55.1314913  11.7201673
  41.2868553  55.4514913  11.3181673  40.8228553  54.3244913  11.9471673
  40.7208553  55.0594913  11.6941673  43.8758553  65.9754913  14.7051673
  44.6328553  66.2614913  14.3791673  43.3288553  66.0274913  14.0271673
  43.9068553  66.0254913  14.5561673  47.7848553  68.5254913  13.2091673
  48.1308553  68.7954913  13.9631673  48.0788553  69.1074913  12.6291673
  47.8798553  68.6514913  13.2351673  37.0908553  60.1844913   7.7811673
  37.5308553  60.0814913   7.0351673  37.6358553  59.8714913   8.3861673
  37.2358553  60.1234913   7.7601673  45.1068553  59.2864913  13.3731673
  44.4588553  59.7564913  13.7211673  45.6718553  59.1974913  14.0321673
  45.0948553  59.3424913  13.5221673  44.7948553  60.8234913   9.6711673
  45.0968553  61.2434913  10.3741673  44.8308553  59.9834913   9.9031673
  44.8448553  60.7614913   9.8091673  47.3428553  60.2704913   1.9231673
  47.5498553  60.0694913   2.7471673  48.0988553  60.5384913   1.5811673
  47.4848553  60.2804913   1.9941673  40.6378553  55.1694913   7.8281673
  39.8118553  55.0204913   8.0651673  40.5978553  55.2044913   6.9571673
  40.5098553  55.1524913   7.7341673  48.3648553  56.3534913   3.3971673
  47.6508553  55.8824913   3.5681673  48.2028553  56.6944913   2.6111673
  48.2358553  56.3344913   3.3061673  48.8078553  64.2974913   1.7771673
  49.2838553  63.5684913   1.7291673  47.9868553  64.0114913   1.7011673
  48.7568553  64.1474913   1.7581673  42.2788553  66.2094913  12.6161673
  41.4838553  66.1454913  12.9671673  42.3498553  67.0564913  12.4211673
  42.1718553  66.3244913  12.6391673  33.2028553  55.5674913  13.8631673
  33.0628553  56.3624913  13.5321673  32.4168553  55.3244913  14.1521673
  33.0658553  55.6494913  13.8571673  45.0238553  65.4644913   4.1321673
  45.0998553  65.8054913   4.9311673  45.1928553  64.6174913   4.2531673
  45.0598553  65.3894913   4.2681673  42.5458553  64.7384913   3.6971673
  42.2478553  64.4234913   4.4541673  43.2408553  65.2114913   3.9321673
  42.6048553  64.7614913   3.8441673  42.7678553  68.8564913  11.7241673
  43.4548553  68.7424913  12.2491673  42.9018553  69.6474913  11.3801673
  42.8888553  68.9564913  11.7511673  50.9438553  61.4654913  13.5351673
  50.0888553  61.3434913  13.6611673  51.0968553  61.0704913  12.7721673
  50.8398553  61.3884913  13.4411673  45.4568553  62.1304913  12.1111673
  45.2018553  61.4114913  12.5331673  46.2778553  62.2464913  12.3811673
  45.5408553  62.0414913  12.2131673  43.3908553  63.3204913  15.2981673
  43.7138553  64.0064913  14.8661673  42.6868553  63.6434913  15.7001673
  43.3338553  63.4694913  15.2931673  43.1758553  66.7844913   9.1571673
  42.4818553  67.1864913   9.5001673  43.8528553  67.2174913   9.4961673
  43.1728553  66.9074913   9.2581673  48.5528553  69.3774913  15.7371673
  49.3288553  68.9874913  15.8201673  48.0838553  69.0414913  16.3921673
  48.5978553  69.2704913  15.8461673  36.2438553  60.3224913  11.5041673
  36.6188553  60.9414913  11.0171673  36.9178553  59.8484913  11.7891673
  36.3988553  60.3444913  11.4741673  34.0188553  58.7704913  10.7791673
  34.0958553  58.6014913   9.9261673  34.7648553  59.1764913  10.9761673
  34.1398553  58.8054913  10.6821673  36.5728553  56.1804913  13.1901673
  36.4918553  55.3364913  13.3961673  36.2588553  56.2244913  12.3771673
  36.5148553  56.0624913  13.1001673  43.4978553  68.3754913   2.3261673
  43.2928553  69.2084913   2.1671673  42.7228553  67.9934913   2.4481673
  43.3528553  68.4424913   2.3211673  48.6798553  61.5564913  10.5751673
  48.6778553  60.6934913  10.6991673  48.7468553  61.8804913  11.3821673
  48.6898553  61.4764913  10.7121673  33.4158553  63.9964913  11.0031673
  33.7358553  64.2154913  10.2221673  33.3158553  63.1314913  10.9481673
  33.4478553  63.9014913  10.8801673  44.5588553  56.3564913  14.3571673
  44.6508553  57.0684913  14.8511673  43.9218553  55.9114913  14.7541673
  44.4778553  56.3954913  14.4891673  43.5528553  56.5464913   5.2111673
  42.8528553  57.0644913   5.1551673  43.5908553  56.1664913   4.4271673
  43.4548553  56.5674913   5.0871673  47.1508553  57.0624913   8.0111673
  48.0058553  57.1614913   8.1561673  46.7818553  57.6154913   8.5761673
  47.2228553  57.1594913   8.1161673  38.1788553  63.2884913  12.3881673
  37.7828553  64.0624913  12.4631673  37.7728553  62.9154913  11.7121673
  38.0608553  63.3474913  12.2991673  47.4548553  62.3424913   6.5021673
  48.1208553  62.8834913   6.6621673  47.1098553  62.6534913   5.7631673
  47.5018553  62.4684913   6.4171673  38.6078553  56.2654913   9.8381673
  37.7438553  56.3494913   9.9181673  38.8278553  55.7514913  10.5071673
  38.5128553  56.2024913   9.9491673  50.6258553  54.9004913  11.1671673
  50.5738553  54.8564913  12.0371673  51.3128553  54.3974913  10.9771673
  50.7198553  54.8204913  11.2671673  42.7108553  57.0134913   8.2121673
  41.9738553  56.5594913   8.3251673  43.2818553  56.6114913   8.7351673
  42.6858553  56.8864913   8.3061673  45.4428553  67.8614913  10.0001673
  45.6488553  68.1624913  10.7921673  45.3818553  68.5834913   9.5151673
  45.4638553  68.0124913  10.0451673  40.2138553  61.3424913  13.4161673
  39.8918553  60.7664913  12.8461673  39.8548553  62.0974913  13.1701673
  40.1138553  61.3684913  13.2961673  50.2548553  66.5004913   9.4581673
  50.2228553  65.6384913   9.3231673  49.5618553  66.8024913   9.0241673
  50.1478553  66.4174913   9.3741673  48.3598553  69.7604913   8.2551673
  48.8868553  69.6774913   7.5641673  47.9688553  68.9824913   8.3091673
  48.3798553  69.6334913   8.1611673  35.8278553  56.3484913  10.4861673
  35.4848553  55.5814913  10.2521673  35.1328553  56.8724913  10.5501673
  35.6748553  56.3124913  10.4611673  44.8738553  55.2044913   7.4631673
  45.5438553  55.7484913   7.5901673  44.3708553  55.6284913   6.8901673
  44.8988553  55.3474913   7.3971673  44.2328553  61.0124913   4.9561673
  44.7838553  60.4054913   5.2561673  43.8078553  61.2754913   5.6711673
  44.2518553  60.9614913   5.1051673  34.4808553  59.6624913   4.4421673
  34.1128553  59.9644913   5.1731673  35.0148553  59.0334913   4.7261673
  34.5048553  59.6144913   4.5921673  34.1688553  68.0704913  11.9531673
  33.5948553  68.4864913  12.4621673  34.9018553  68.5354913  12.0481673
  34.1928553  68.2004913  12.0421673  49.4768553  64.2164913  14.6691673
  50.1108553  64.0464913  15.2431673  49.8938553  64.6194913  14.0171673
  49.6318553  64.2514913  14.6581673  50.1018553  58.7804913  15.4071673
  49.9058553  59.4244913  15.9621673  49.3798553  58.2904913  15.3991673
  49.9668553  58.8034913  15.4881673  50.0008553  59.7214913   8.3781673
  49.1678553  59.9714913   8.3061673  49.9448553  58.8814913   8.6071673
  49.8698553  59.6344913   8.4011673  39.2608553  56.7094913  13.5721673
  39.4948553  56.1334913  12.9591673  38.4188553  56.5284913  13.7131673
  39.1708553  56.5974913  13.5021673  46.8878553  64.3274913  16.0241673
  47.7588553  64.2914913  15.9881673  46.6688553  64.7474913  15.2921673
  46.9848553  64.3834913  15.9111673  43.6518553  36.4343833  78.9581313
  43.4068553  36.9223833  78.2781313  44.5148553  36.3613833  78.8581313
  43.7428553  36.4953833  78.8431313  43.4608553  43.3503833  83.6291313
  42.9368553  43.9463833  83.9921313  43.8578553  42.9823833  84.3131313
  43.4418553  43.3843833  83.7841313  33.3298553  47.4903833  79.0851313
  32.8888553  47.6083833  79.8281313  33.0468553  46.7153833  78.8001313
  33.2228553  47.3933833  79.1531313  49.6048553  50.7913833  76.6001313
  50.3058553  50.2723833  76.5961313  49.0178553  50.3463833  76.1311313
  49.6218553  50.6483833  76.5301313  33.0728553  41.2823833  75.5921313
  32.2948553  41.4443833  75.2321313  33.1118553  40.4113833  75.6141313
  32.9638553  41.1773833  75.5421313  36.2118553  46.5453833  74.2641313
  35.8198553  46.1743833  73.5781313  36.1318553  45.9473833  74.8931313
  36.1418553  46.4023833  74.2551313  46.1318553  44.4173833  80.3051313
  46.2118553  44.4213833  79.4361313  45.5478553  43.7853833  80.4541313
  46.0568553  44.3243833  80.1991313  35.8388553  48.1863833  78.1641313
  36.4468553  48.0163833  78.7671313  35.0878553  48.0463833  78.5851313
  35.8178553  48.1403833  78.3151313  40.1208553  37.5213833  78.1131313
  40.0508553  38.1983833  77.5671313  40.8618553  37.1333833  77.8641313
  40.2198553  37.5643833  77.9951313  34.7298553  51.2773833  74.2411313
  35.1968553  51.3613833  73.5091313  35.1848553  50.6993833  74.7101313
  34.8658553  51.2043833  74.2021313  33.2698553  50.2253833  85.3401313
  33.3988553  49.9453833  86.1561313  32.6598553  49.6843833  85.0311313
  33.1988553  50.1043833  85.4151313  34.7158553  44.7463833  79.5421313
  34.2538553  44.3543833  78.9151313  35.4158553  44.2333833  79.6341313
  34.7508553  44.6133833  79.4631313  39.2238553  40.3563833  84.8891313
  39.9018553  40.3743833  84.3401313  39.1788553  39.5203833  85.1341313
  39.3168553  40.2353833  84.8441313  39.8258553  50.9423833  87.6701313
  39.9638553  51.7023833  87.2631313  40.6168553  50.5773833  87.6971313
  39.9628553  51.0013833  87.6141313  36.7168553  42.8463833  79.5651313
  37.5338553  42.6593833  79.8081313  36.2398553  42.2323833  79.9611313
  36.7668553  42.7283833  79.6601313  40.9208553  48.8273833  82.1751313
  41.2688553  48.0283833  82.2051313  41.5858553  49.3313833  81.9201313
  41.0708553  48.7833833  82.1421313  40.9778553  48.2763833  78.3861313
  41.3088553  47.6323833  78.8721313  41.2178553  48.0653833  77.5751313
  41.0618553  48.1503833  78.3381313  37.3138553  37.9403833  78.8311313
  37.0178553  38.4413833  78.1811313  38.1808553  38.0183833  78.7741313
  37.3978553  38.0263833  78.7271313  40.2928553  37.0823833  81.0541313
  40.3658553  37.9423833  81.1831313  40.2548553  37.0073833  80.1861313
  40.2978553  37.1983833  80.9451313  44.9658553  40.0083833  73.3531313
  44.5158553  40.6893833  73.6601313  45.0798553  39.5043833  74.0561313
  44.9168553  40.0343833  73.5021313  33.1718553  42.5073833  82.5551313
  32.9158553  43.3383833  82.4801313  32.5078553  42.1243833  82.9721313
  33.0358553  42.5733833  82.6061313  33.0818553  52.2173833  80.4551313
  32.4898553  52.7753833  80.1421313  33.5078553  51.9483833  79.7431313
  33.0578553  52.2593833  80.3041313  38.9218553  50.0613833  77.9351313
  38.3428553  49.7863833  78.5271313  39.5458553  49.4523833  77.9601313
  38.9288553  49.9313833  78.0261313  45.0648553  52.3493833  75.4571313
  45.7918553  52.8213833  75.5591313  45.2938553  51.5553833  75.7371313
  45.2068553  52.3023833  75.5141313  43.2328553  52.7413833  77.4471313
  43.4468553  53.2683833  78.1091313  43.9998553  52.5673833  77.0681313
  43.3778553  52.7933833  77.4891313  36.2008553  37.3243833  83.0461313
  35.6798553  36.6963833  82.7381313  36.7918553  36.8873833  83.5171313
  36.2118553  37.1663833  83.0701313  34.6268553  50.8873833  78.3861313
  35.2828553  50.3123833  78.4011313  35.0158553  51.6363833  78.1651313
  34.7818553  50.9123833  78.3561313  50.3598553  39.9813833  79.6481313
  50.0138553  40.6593833  80.0741313  49.7238553  39.3833833  79.6641313
  50.2148553  39.9933833  79.7131313  45.6718553  52.7513833  85.7521313
  46.4158553  53.2073833  85.7421313  45.5508553  52.5373833  84.9151313
  45.7638553  52.7873833  85.6271313  35.4448553  49.3743833  81.8861313
  35.8678553  49.0183833  81.2121313  35.7688553  48.9523833  82.5781313
  35.5548553  49.2593833  81.8891313  38.6758553  52.2263833  81.1821313
  39.5198553  52.3303833  80.9871313  38.3788553  53.0443833  81.2501313
  38.7568553  52.3623833  81.1631313  42.4828553  41.6233833  79.2691313
  42.7698553  41.3913833  78.4791313  43.2148553  41.7023833  79.7381313
  42.6328553  41.6003833  79.2221313  43.2048553  41.9623833  74.3901313
  43.4858553  42.7503833  74.6391313  42.4288553  42.1273833  74.0271313
  43.1318553  42.1033833  74.3731313  47.2458553  53.9363833  75.8571313
  47.9108553  53.7883833  75.3121313  47.6058553  53.8533833  76.6471313
  47.3978553  53.9023833  75.8931313  37.6738553  53.4453833  86.9221313
  37.9658553  53.3783833  87.7421313  37.0478553  52.8403833  86.8771313
  37.6248553  53.3463833  87.0371313  50.0348553  38.3043833  85.0171313
  50.7918553  38.3763833  84.5891313  50.0978553  37.5313833  85.4161313
  50.1558553  38.2013833  85.0121313  42.0638553  50.1333833  74.2061313
  41.8828553  50.6783833  74.8631313  42.8298553  50.4233833  73.9051313
  42.1498553  50.2573833  74.2591313  45.5708553  38.0293833  75.2601313
  46.1108553  37.3473833  75.3361313  45.6328553  38.4273833  76.0341313
  45.6598553  37.9873833  75.3861313  33.5248553  39.1973833  77.8291313
  33.4108553  38.3333833  77.8601313  33.0498553  39.4913833  78.4991313
  33.4378553  39.1133833  77.9321313  35.6668553  51.6073833  86.0441313
  34.9688553  51.0993833  86.1701313  35.9268553  51.4023833  85.2361313
  35.6018553  51.5023833  85.9431313  42.8288553  40.4053833  76.5741313
  42.3208553  39.7433833  76.3201313  42.8808553  40.9093833  75.8641313
  42.7618553  40.3823833  76.4321313  43.3778553  53.1003833  86.9541313
  44.1458553  53.0203833  86.5481313  42.7948553  52.9793833  86.3161313
  43.4048553  53.0703833  86.8001313  42.8288553  37.3463833  76.4651313
  42.3738553  36.9443833  75.8391313  43.6018553  37.5013833  76.0901313
  42.8758553  37.3103833  76.3171313  49.6548553  53.7033833  79.8551313
  49.1998553  54.4203833  80.0561313  49.0408553  53.1323833  79.6131313
  49.4968553  53.7253833  79.8491313  41.4268553  39.7133833  80.9871313
  41.5008553  40.2813833  80.3291313  41.5478553  40.2053833  81.6971313
  41.4548553  39.8703833  80.9951313  46.6518553  49.5483833  79.3991313
  47.3528553  49.0663833  79.5881313  45.9918553  48.9793833  79.4441313
  46.6578553  49.3933833  79.4331313  36.0348553  35.5363833  79.3351313
  36.5708553  36.2243833  79.3251313  36.0378553  35.2623833  78.5071313
  36.1138553  35.5973833  79.2111313  38.9908553  45.9693833  83.3601313
  39.1628553  45.7593833  84.1891313  38.3358553  45.4353833  83.1441313
  38.9198553  45.8593833  83.4511313  45.2188553  39.8833833  86.8751313
  45.1238553  40.2023833  87.6811313  44.6258553  39.2443833  86.8371313
  45.1168553  39.8353833  86.9891313  39.7408553  45.9073833  85.9501313
  39.7938553  46.7543833  86.1521313  39.4558553  45.5373833  86.6871313
  39.7068553  45.9773833  86.0881313  45.9178553  46.6023833  85.0801313
  45.4038553  46.1903833  85.6511313  45.7918553  47.4463833  85.2611313
  45.8238553  46.6663833  85.1911313  46.4748553  35.8273833  79.7111313
  46.5238553  35.5093833  80.5221313  46.7978553  35.1833833  79.2181313
  46.5298553  35.6853833  79.7581313  36.4828553  39.3463833  80.9891313
  36.7548553  38.9163833  80.2811313  36.3068553  38.7103833  81.5601313
  36.4968553  39.1893833  80.9691313  49.1708553  47.0413833  75.2071313
  49.2898553  46.7543833  76.0221313  49.9778553  47.0623833  74.8771313
  49.3068553  47.0023833  75.2791313  36.3068553  46.7733833  80.5381313
  37.1578553  46.6933833  80.3651313  35.9498553  46.0913833  80.1261313
  36.3798553  46.6603833  80.4511313  35.0738553  53.4983833  81.7751313
  34.4008553  53.0003833  81.5301313  35.4768553  53.6833833  81.0241313
  35.0338553  53.4523833  81.6281313  34.6238553  40.4483833  84.0711313
  35.4668553  40.6683833  84.0281313  34.2348553  41.0213833  83.5401313
  34.6908553  40.5653833  83.9861313  47.0658553  43.5783833  74.7921313
  46.8458553  44.3093833  74.3701313  46.6178553  43.6293833  75.5391313
  46.9668553  43.6933833  74.8401313  38.6748553  46.7803833  78.7731313
  39.3878553  47.2753833  78.8631313  38.8968553  46.2133833  78.1471313
  38.8128553  46.7693833  78.6941313  51.2528553  38.4393833  74.2451313
  50.5908553  37.8713833  74.2681313  51.0598553  38.9513833  73.5651313
  51.1268553  38.4313833  74.1481313  32.8308553  48.4233833  82.0931313
  32.1638553  48.9113833  82.3691313  33.5108553  48.9683833  82.1221313
  32.8328553  48.5753833  82.1381313  51.5758553  42.8173833  86.8011313
  51.7908553  42.0173833  86.5251313  50.7258553  42.8773833  86.6121313
  51.4818553  42.7083833  86.7321313  32.8968553  45.1073833  77.1961313
  32.7118553  44.2683833  77.3481313  33.5558553  45.0713833  76.6261313
  32.9668553  44.9783833  77.1341313  49.2548553  37.9973833  76.5241313
  50.0008553  37.5903833  76.7231313  49.5178553  38.7123833  76.0991313
  49.4038553  38.0433833  76.4911313  43.1978553  50.4833833  81.1001313
  42.6748553  51.1173833  80.8071313  43.5078553  50.1193833  80.3711313
  43.1658553  50.5233833  80.9491313  33.0688553  49.2713833  76.7711313
  33.6208553  49.8403833  77.1351313  32.8368553  48.7563833  77.4361313
  33.1158553  49.2793833  76.9231313  37.2728553  48.2713833  83.8601313
  37.7398553  48.5603833  84.5381313  37.8448553  47.7933833  83.4061313
  37.4268553  48.2433833  83.8931313  45.7088553  40.2853833  81.5971313
  46.0528553  40.4373833  82.3841313  45.2558553  39.5473833  81.7101313
  45.6928553  40.1983833  81.7301313  32.8988553  47.7203833  74.3991313
  33.6548553  47.2883833  74.4571313  32.9138553  48.2523833  75.0901313
  33.0128553  47.7353833  74.5101313  33.8388553  45.9413833  82.4041313
  34.2698553  45.8123833  81.6571313  33.6338553  46.7893833  82.3781313
  33.8718553  46.0473833  82.2901313  40.1848553  39.5053833  76.0541313
  40.1828553  39.3883833  75.1891313  40.0038553  40.3533833  76.1461313
  40.1578553  39.6133833  75.9401313  49.2388553  51.9323833  87.5511313
  48.5678553  52.4463833  87.7691313  49.3018553  52.0323833  86.6871313
  49.1488553  52.0233833  87.4561313  37.9228553  49.4573833  80.6861313
  38.0488553  50.3003833  80.8731313  38.5908553  49.0583833  81.0821313
  38.0408553  49.5233833  80.7721313  36.5378553  42.3373833  75.6881313
  36.4098553  41.8893833  76.4261313  35.9558553  41.9953833  75.1361313
  36.4328553  42.2203833  75.7161313  36.7048553  44.1673833  82.2871313
  35.9238553  44.1083833  81.9041313  36.7768553  43.4153833  82.7241313
  36.5998553  44.0483833  82.2951313  37.1348553  43.9043833  85.7551313
  37.1598553  43.2293833  85.2041313  36.4888553  44.4003833  85.4431313
  37.0438553  43.8773833  85.6281313  47.0298553  41.6173833  84.1511313
  46.3678553  41.9453833  84.6141313  47.2168553  42.2513833  83.5821313
  46.9598553  41.7593833  84.1351313  41.2348553  52.6813833  85.1471313
  40.9578553  52.0403833  84.6241313  41.0268553  53.4073833  84.7091313
  41.1638553  52.6943833  85.0051313  45.2228553  39.5863833  77.6621313
  45.7128553  40.3033833  77.5851313  44.4328553  39.8473833  77.3991313
  45.1788553  39.7303833  77.6121313  41.8048553  41.0563833  83.3871313
  42.2848553  41.7553833  83.5951313  42.1778553  40.4093833  83.8381313
  41.9308553  41.0643833  83.4841313  43.9938553  44.2253833  75.6611313
  43.9858553  44.9473833  75.1711313  43.3548553  44.3603833  76.2381313
  43.8988553  44.3523833  75.6741313  48.9658553  48.0953833  79.6421313
  49.3218553  47.7453833  80.3571313  48.9578553  47.4343833  79.0721313
  49.0178553  47.9453833  79.6631313  45.0108553  51.1613833  83.4861313
  44.4078553  50.8653833  82.9291313  45.5558553  51.6133833  82.9771313
  45.0018553  51.1843833  83.3281313  45.0238553  48.0123833  82.8861313
  44.2268553  48.2363833  83.1601313  45.2818553  47.4183833  83.4711313
  44.9438553  47.9573833  83.0131313  38.9158553  52.8243833  77.3341313
  38.7688553  52.0483833  77.7051313  39.6048553  52.6773833  76.8191313
  38.9958553  52.6873833  77.3131313  38.5868553  36.5673833  75.3221313
  38.6838553  36.4603833  76.1831313  37.8788553  37.0733833  75.2571313
  38.4968553  36.6263833  75.4401313  41.2078553  52.3403833  75.7361313
  41.8298553  52.5033833  76.3261313  41.2438553  53.0313833  75.2041313
  41.3048553  52.4663833  75.7451313  48.2838553  46.0103833  87.7321313
  48.3388553  46.1353833  86.8701313  49.0368553  46.3303833  88.0341313
  48.4028553  46.0753833  87.6491313  35.7088553  44.8743833  76.5651313
  36.0328553  44.0953833  76.3431313  36.3548553  45.2423833  77.0201313
  35.8518553  44.8133833  76.5991313  44.0148553  45.8163833  87.3321313
  43.8598553  46.4263833  87.9361313  44.5488553  45.2583833  87.7381313
  44.0708553  45.8243833  87.4811313  32.7058553  36.5353833  77.5331313
  32.8348553  35.8273833  77.0411313  32.3388553  36.2173833  78.2581313
  32.6708553  36.3833833  77.5681313  42.3988553  44.2163833  77.9901313
  42.4578553  44.8663833  78.5691313  42.2098553  43.5203833  78.4811313
  42.3798553  44.2093833  78.1481313  47.6248553  48.5453833  83.8591313
  47.1458553  48.8433833  83.1931313  47.2688553  47.7693833  84.0371313
  47.5018553  48.4743833  83.7871313  36.8948553  38.7333833  74.5021313
  36.3838553  38.7863833  73.7961313  37.6788553  38.9733833  74.2061313
  36.9348553  38.7763833  74.3541313  41.6218553  46.2633833  82.4211313
  40.7748553  46.0693833  82.5021313  41.9458553  46.0983833  83.2141313
  41.5438553  46.2103833  82.5501313  38.3738553  52.9933833  73.3071313
  38.8128553  52.2963833  73.5951313  38.5808553  53.6173833  73.8801313
  38.4698553  52.9823833  73.4341313  35.4698553  45.9563833  84.7371313
  36.1918553  46.4443833  84.7001313  35.1998553  45.9263833  83.9081313
  35.5368553  46.0243833  84.6091313  38.6998553  41.1273833  81.4721313
  39.5458553  40.9373833  81.5701313  38.3298553  40.3503833  81.3341313
  38.7698553  40.9843833  81.4661313  51.3168553  52.7113833  75.7991313
  52.0108553  52.2443833  75.5511313  50.7778553  52.1133833  76.1361313
  51.3398553  52.5533833  75.8121313  33.5208553  42.4653833  78.1271313
  34.0098553  42.1733833  78.7881313  33.6498553  41.8723833  77.5001313
  33.6118553  42.3343833  78.1321313  48.5558553  45.4873833  84.9781313
  48.5488553  44.7113833  85.3761313  47.7148553  45.7213833  84.9711313
  48.4308553  45.4073833  85.0361313  38.0458553  43.8993833  73.6131313
  37.4358553  43.4943833  74.0871313  37.6598553  44.0173833  72.8401313
  37.8988553  43.8563833  73.5691313  49.8118553  45.5583833  82.4151313
  49.5258553  45.9593833  83.1351313  50.6718553  45.4963833  82.5421313
  49.8968553  45.6083833  82.5401313  39.5008553  42.3603833  76.3231313
  39.7728553  43.1863833  76.3901313  38.6378553  42.4353833  76.2271313
  39.4138553  42.4933833  76.3181313  32.9808553  38.3303833  82.8591313
  33.0248553  38.6743833  82.0581313  33.7358553  38.5673833  83.2261313
  33.0988553  38.4163833  82.7951313  50.9428553  51.1913833  82.9441313
  51.2328553  51.4483833  82.1631313  51.6378553  51.2873833  83.4631313
  51.0888553  51.2433833  82.9051313  47.5478553  49.7943833  74.9261313
  47.8818553  48.9883833  74.9611313  46.7928553  49.7223833  75.3561313
  47.4858553  49.6643833  74.9951313  48.0298553  41.6283833  80.5851313
  47.2848553  41.3053833  80.9031313  48.0318553  42.4543833  80.8651313
  47.9198553  41.7023833  80.6731313  44.9218553  47.6693833  74.3291313
  45.6058553  47.1553833  74.1601313  44.5048553  47.7153833  73.5641313
  44.9608553  47.6003833  74.1911313  39.6038553  48.8193833  85.6331313
  39.3058553  49.4113833  86.2001313  39.6588553  49.2613833  84.8841313
  39.5678553  48.9723833  85.6061313  46.9418553  37.9583833  88.0461313
  47.6858553  38.4103833  87.9831313  46.3758553  38.4283833  87.5771313
  46.9688553  38.0953833  87.9681313  42.1198553  45.2423833  85.1241313
  42.5958553  45.6163833  85.7521313  41.2968553  45.3763833  85.3831313
  42.0688553  45.3173833  85.2551313  41.3838553  52.6353833  80.3521313
  41.9298553  53.3143833  80.4061313  41.0338553  52.7173833  79.5571313
  41.4128553  52.7483833  80.2421313  48.2268553  35.9383833  85.7161313
  47.9468553  36.7633833  85.6721313  48.9428553  35.9913833  86.2121313
  48.2918553  36.0683833  85.7831313  40.5818553  36.6533833  87.7451313
  41.2868553  36.9733833  87.3431313  40.8228553  35.8463833  87.9721313
  40.7208553  36.5813833  87.7191313  39.5668553  50.8633833  83.7411313
  38.9428553  51.4453833  83.5591313  39.8148553  50.5773833  82.9551313
  39.5108553  50.9073833  83.5981313  49.6478553  42.1933833  74.5731313
  50.0258553  42.8703833  74.1731313  48.8058553  42.4173833  74.6041313
  49.5788553  42.3263833  74.5181313  41.1608553  45.6393833  73.6561313
  40.3558553  45.4623833  73.3711313  41.1278553  46.4903833  73.8481313
  41.0368553  45.7383833  73.6431313  37.0908553  41.7063833  83.8061313
  37.5308553  41.6033833  83.0601313  37.6358553  41.3933833  84.4111313
  37.2358553  41.6453833  83.7851313  44.7948553  42.3453833  85.6961313
  45.0968553  42.7653833  86.3991313  44.8308553  41.5053833  85.9281313
  44.8448553  42.2833833  85.8341313  47.3428553  41.7923833  77.9481313
  47.5498553  41.5913833  78.7721313  48.0988553  42.0603833  77.6061313
  47.4848553  41.8023833  78.0191313  40.6378553  36.6913833  83.8531313
  39.8118553  36.5423833  84.0901313  40.5978553  36.7263833  82.9821313
  40.5098553  36.6743833  83.7591313  48.3648553  37.8753833  79.4221313
  47.6508553  37.4043833  79.5931313  48.2028553  38.2163833  78.6361313
  48.2358553  37.8563833  79.3311313  48.8078553  45.8193833  77.8021313
  49.2838553  45.0903833  77.7541313  47.9868553  45.5333833  77.7261313
  48.7568553  45.6693833  77.7831313  38.1088553  53.9383833  83.9581313
  38.1198553  53.9973833  84.8281313  37.6838553  53.1913833  83.8081313
  38.0478553  53.8363833  84.0641313  36.2668553  39.8333833  77.1131313
  36.3928553  39.5043833  76.3151313  35.4548553  39.5843833  77.3121313
  36.1658553  39.7483833  77.0251313  45.0238553  46.9863833  80.1571313
  45.0998553  47.3273833  80.9561313  45.1928553  46.1393833  80.2781313
  45.0598553  46.9113833  80.2931313  42.5458553  46.2603833  79.7221313
  42.2478553  45.9453833  80.4791313  43.2408553  46.7333833  79.9571313
  42.6048553  46.2833833  79.8691313  46.4748553  53.2163833  82.2521313
  46.0238553  53.8593833  82.6311313  47.1828553  53.1373833  82.7571313
  46.5128553  53.2993833  82.3831313  43.1758553  48.3063833  85.1821313
  42.4818553  48.7083833  85.5251313  43.8528553  48.7393833  85.5211313
  43.1728553  48.4293833  85.2831313  36.2438553  41.8443833  87.5291313
  36.6188553  42.4633833  87.0421313  36.9178553  41.3703833  87.8141313
  36.3988553  41.8663833  87.4991313  34.0188553  40.2923833  86.8041313
  34.0958553  40.1233833  85.9511313  34.7648553  40.6983833  87.0011313
  34.1398553  40.3273833  86.7071313  49.5778553  42.9323833  77.2441313
  49.6808553  42.8743833  76.3801313  50.3188553  42.6003833  77.5621313
  49.7028553  42.8753833  77.1631313  43.4978553  49.8973833  78.3511313
  43.2928553  50.7303833  78.1921313  42.7228553  49.5153833  78.4731313
  43.3528553  49.9643833  78.3461313  48.6798553  43.0783833  86.6001313
  48.6778553  42.2153833  86.7241313  48.7468553  43.4023833  87.4071313
  48.6898553  42.9983833  86.7371313  33.4158553  45.5183833  87.0281313
  33.7358553  45.7373833  86.2471313  33.3158553  44.6533833  86.9731313
  33.4478553  45.4233833  86.9051313  34.8718553  41.4543833  73.6461313
  34.1998553  41.4683833  74.2021313  34.9668553  40.6063833  73.4621313
  34.7868553  41.3313833  73.7011313  43.5528553  38.0683833  81.2361313
  42.8528553  38.5863833  81.1801313  43.5908553  37.6883833  80.4521313
  43.4548553  38.0893833  81.1121313  38.8598553  50.1593833  74.7601313
  39.3008553  50.2393833  75.5081313  38.0548553  49.9433833  75.0181313
  38.8058553  50.1393833  74.9091313  47.1508553  38.5843833  84.0361313
  48.0058553  38.6833833  84.1811313  46.7818553  39.1373833  84.6011313
  47.2228553  38.6813833  84.1411313  47.4548553  43.8643833  82.5271313
  48.1208553  44.4053833  82.6871313  47.1098553  44.1753833  81.7881313
  47.5018553  43.9903833  82.4421313  47.7678553  51.9303833  78.3341313
  47.5938553  51.2763833  78.8841313  48.4808553  51.6593833  77.9111313
  47.8478553  51.7933833  78.3531313  36.1888553  49.2293833  75.3611313
  35.9448553  48.9223833  76.1411313  36.1558553  48.5263833  74.8451313
  36.1478553  49.0803833  75.4001313  39.0078553  47.4743833  74.1041313
  38.1898553  47.2063833  74.2441313  38.9798553  48.3263833  74.2891313
  38.8828553  47.5613833  74.1521313  38.6078553  37.7873833  85.8631313
  37.7438553  37.8713833  85.9431313  38.8278553  37.2733833  86.5321313
  38.5128553  37.7243833  85.9741313  50.6258553  36.4223833  87.1921313
  50.5738553  36.3783833  88.0621313  51.3128553  35.9193833  87.0021313
  50.7198553  36.3423833  87.2921313  42.7108553  38.5353833  84.2371313
  41.9738553  38.0813833  84.3501313  43.2818553  38.1333833  84.7601313
  42.6858553  38.4083833  84.3311313  45.4428553  49.3833833  86.0251313
  45.6488553  49.6843833  86.8171313  45.3818553  50.1053833  85.5401313
  45.4638553  49.5343833  86.0701313  41.0098553  36.1163833  74.0681313
  41.0878553  36.3633833  73.2351313  40.2668553  36.4933833  74.3261313
  40.9118553  36.2083833  73.9831313  50.2548553  48.0223833  85.4831313
  50.2228553  47.1603833  85.3481313  49.5618553  48.3243833  85.0491313
  50.1478553  47.9393833  85.3991313  48.3598553  51.2823833  84.2801313
  48.8868553  51.1993833  83.5891313  47.9688553  50.5043833  84.3341313
  48.3798553  51.1553833  84.1861313  35.8278553  37.8703833  86.5111313
  35.4848553  37.1033833  86.2771313  35.1328553  38.3943833  86.5751313
  35.6748553  37.8343833  86.4861313  44.8738553  36.7263833  83.4881313
  45.5438553  37.2703833  83.6151313  44.3708553  37.1503833  82.9151313
  44.8988553  36.8693833  83.4221313  44.2328553  42.5343833  80.9811313
  44.7838553  41.9273833  81.2811313  43.8078553  42.7973833  81.6961313
  44.2518553  42.4833833  81.1301313  34.4808553  41.1843833  80.4671313
  34.1128553  41.4863833  81.1981313  35.0148553  40.5553833  80.7511313
  34.5048553  41.1363833  80.6171313  46.2028553  44.3653833  77.5431313
  46.2708553  43.5153833  77.7241313  45.3798553  44.4513833  77.2651313
  46.0908553  44.2523833  77.5291313  35.9548553  52.8593833  76.7531313
  35.8098553  53.0153833  75.9071313  36.8208553  52.9383833  76.8311313
  36.0618553  52.8943833  76.6401313  40.1218553  45.2563833  76.4811313
  40.2218553  45.3953833  75.6261313  40.9398553  45.1963833  76.7771313
  40.2568553  45.2673833  76.3981313  49.2818553  53.3203833  73.9611313
  49.9188553  53.1863833  74.5421313  48.9408553  52.5263833  73.8441313
  49.3258553  53.1833833  74.0291313  45.3568553  49.5853833  76.2831313
  45.1058553  49.4573833  77.1091313  45.0398553  48.8903833  75.8621313
  45.2728553  49.4643833  76.3431313  50.0008553  41.2433833  84.4031313
  49.1678553  41.4933833  84.3311313  49.9448553  40.4033833  84.6321313
  49.8698553  41.1563833  84.4261313  36.6418553  51.6743833  83.2301313
  36.5628553  50.8643833  82.9141313  36.1978553  52.1613833  82.6581313
  36.5648553  51.6263833  83.0991313  42.2428553  47.7933833  75.7131313
  42.9598553  47.4463833  75.3571313  42.2088553  48.5933833  75.3651313
  42.3438553  47.8603833  75.6091313  34.2138553  53.9183833  86.8111313
  34.7068553  53.8623833  87.5291313  34.4018553  53.1853833  86.3761313
  34.3148553  53.8013833  86.8531313  43.6518553  36.4343833  59.9518903
  43.4068553  36.9223833  59.2718903  44.5148553  36.3613833  59.8518903
  43.7428553  36.4953833  59.8368903  43.4608553  43.3503833  64.6228903
  42.9368553  43.9463833  64.9858903  43.8578553  42.9823833  65.3068903
  43.4418553  43.3843833  64.7778903  33.3298553  47.4903833  60.0788903
  32.8888553  47.6083833  60.8218903  33.0468553  46.7153833  59.7938903
  33.2228553  47.3933833  60.1468903  49.6048553  50.7913833  57.5938903
  50.3058553  50.2723833  57.5898903  49.0178553  50.3463833  57.1248903
  49.6218553  50.6483833  57.5238903  33.0728553  41.2823833  56.5858903
  32.2948553  41.4443833  56.2258903  33.1118553  40.4113833  56.6078903
  32.9638553  41.1773833  56.5358903  36.2118553  46.5453833  55.2578903
  35.8198553  46.1743833  54.5718903  36.1318553  45.9473833  55.8868903
  36.1418553  46.4023833  55.2488903  46.1318553  44.4173833  61.2988903
  46.2118553  44.4213833  60.4298903  45.5478553  43.7853833  61.4478903
  46.0568553  44.3243833  61.1928903  35.8388553  48.1863833  59.1578903
  36.4468553  48.0163833  59.7608903  35.0878553  48.0463833  59.5788903
  35.8178553  48.1403833  59.3088903  40.1208553  37.5213833  59.1068903
  40.0508553  38.1983833  58.5608903  40.8618553  37.1333833  58.8578903
  40.2198553  37.5643833  58.9888903  34.7298553  51.2773833  55.2348903
  35.1968553  51.3613833  54.5028903  35.1848553  50.6993833  55.7038903
  34.8658553  51.2043833  55.1958903  33.2698553  50.2253833  66.3338903
  33.3988553  49.9453833  67.1498903  32.6598553  49.6843833  66.0248903
  33.1988553  50.1043833  66.4088903  39.8438553  47.7503833  71.4008903
  39.6078553  47.7473833  72.2408903  39.0958553  47.6023833  70.9768903
  39.6978553  47.7273833  71.4618903  34.7158553  44.7463833  60.5358903
  34.2538553  44.3543833  59.9088903  35.4158553  44.2333833  60.6278903
  34.7508553  44.6133833  60.4568903  39.2238553  40.3563833  65.8828903
  39.9018553  40.3743833  65.3338903  39.1788553  39.5203833  66.1278903
  39.3168553  40.2353833  65.8378903  39.8258553  50.9423833  68.6638903
  39.9638553  51.7023833  68.2568903  40.6168553  50.5773833  68.6908903
  39.9628553  51.0013833  68.6078903  36.7168553  42.8463833  60.5588903
  37.5338553  42.6593833  60.8018903  36.2398553  42.2323833  60.9548903
  36.7668553  42.7283833  60.6538903  40.9208553  48.8273833  63.1688903
  41.2688553  48.0283833  63.1988903  41.5858553  49.3313833  62.9138903
  41.0708553  48.7833833  63.1358903  40.9778553  48.2763833  59.3798903
  41.3088553  47.6323833  59.8658903  41.2178553  48.0653833  58.5688903
  41.0618553  48.1503833  59.3318903  42.9458553  42.4073833  70.7188903
  42.0978553  42.3083833  70.5408903  42.9748553  43.1523833  71.1728903
  42.8248553  42.5033833  70.7598903  47.5038553  35.3673833  69.8328903
  47.3458553  36.1363833  69.4508903  46.7318553  35.1473833  70.1768903
  47.3658553  35.4483833  69.8278903  40.2928553  37.0823833  62.0478903
  40.3658553  37.9423833  62.1768903  40.2548553  37.0073833  61.1798903
  40.2978553  37.1983833  61.9388903  44.9658553  40.0083833  54.3468903
  44.5158553  40.6893833  54.6538903  45.0798553  39.5043833  55.0498903
  44.9168553  40.0343833  54.4958903  33.1718553  42.5073833  63.5488903
  32.9158553  43.3383833  63.4738903  32.5078553  42.1243833  63.9658903
  33.0358553  42.5733833  63.5998903  33.0818553  52.2173833  61.4488903
  32.4898553  52.7753833  61.1358903  33.5078553  51.9483833  60.7368903
  33.0578553  52.2593833  61.2978903  38.9218553  50.0613833  58.9288903
  38.3428553  49.7863833  59.5208903  39.5458553  49.4523833  58.9538903
  38.9288553  49.9313833  59.0198903  45.0648553  52.3493833  56.4508903
  45.7918553  52.8213833  56.5528903  45.2938553  51.5553833  56.7308903
  45.2068553  52.3023833  56.5078903  43.2328553  52.7413833  58.4408903
  43.4468553  53.2683833  59.1028903  43.9998553  52.5673833  58.0618903
  43.3778553  52.7933833  58.4828903  36.2008553  37.3243833  64.0398903
  35.6798553  36.6963833  63.7318903  36.7918553  36.8873833  64.5108903
  36.2118553  37.1663833  64.0638903  39.5068553  39.4573833  73.3378903
  39.6238553  39.0033833  72.6018903  39.7948553  40.2553833  73.1348903
  39.5668553  39.5083833  73.1988903  34.6268553  50.8873833  59.3798903
  35.2828553  50.3123833  59.3948903  35.0158553  51.6363833  59.1588903
  34.7818553  50.9123833  59.3498903  50.3598553  39.9813833  60.6418903
  50.0138553  40.6593833  61.0678903  49.7238553  39.3833833  60.6578903
  50.2148553  39.9933833  60.7068903  45.6718553  52.7513833  66.7458903
  46.4158553  53.2073833  66.7358903  45.5508553  52.5373833  65.9088903
  45.7638553  52.7873833  66.6208903  35.2398553  39.0543833  72.3218903
  34.4618553  38.6643833  72.2498903  35.7308553  38.6423833  71.7308903
  35.1968553  38.9353833  72.2238903  35.4448553  49.3743833  62.8798903
  35.8678553  49.0183833  62.2058903  35.7688553  48.9523833  63.5718903
  35.5548553  49.2593833  62.8828903  38.6758553  52.2263833  62.1758903
  39.5198553  52.3303833  61.9808903  38.3788553  53.0443833  62.2438903
  38.7568553  52.3623833  62.1568903  41.8888553  36.6973833  71.4898903
  42.0668553  35.8883833  71.2148903  41.7458553  37.1383833  70.7508903
  41.8938553  36.6433833  71.3398903  42.4828553  41.6233833  60.2628903
  42.7698553  41.3913833  59.4728903  43.2148553  41.7023833  60.7318903
  42.6328553  41.6003833  60.2158903  43.2048553  41.9623833  55.3838903
  43.4858553  42.7503833  55.6328903  42.4288553  42.1273833  55.0208903
  43.1318553  42.1033833  55.3668903  47.2458553  53.9363833  56.8508903
  47.9108553  53.7883833  56.3058903  47.6058553  53.8533833  57.6408903
  47.3978553  53.9023833  56.8868903  37.6738553  53.4453833  67.9158903
  37.9658553  53.3783833  68.7358903  37.0478553  52.8403833  67.8708903
  37.6248553  53.3463833  68.0308903  50.0348553  38.3043833  66.0108903
  50.7918553  38.3763833  65.5828903  50.0978553  37.5313833  66.4098903
  50.1558553  38.2013833  66.0058903  32.5878553  39.6023833  69.9078903
  32.5838553  40.1893833  70.5538903  33.1818553  39.9143833  69.3508903
  32.6748553  39.7353833  69.9208903  44.9258553  49.9363833  70.4498903
  44.8918553  50.3183833  71.2338903  45.7798553  49.8943833  70.2788903
  45.0468553  49.9863833  70.5408903  42.0638553  50.1333833  55.1998903
  41.8828553  50.6783833  55.8568903  42.8298553  50.4233833  54.8988903
  42.1498553  50.2573833  55.2528903  45.5708553  38.0293833  56.2538903
  46.1108553  37.3473833  56.3298903  45.6328553  38.4273833  57.0278903
  45.6598553  37.9873833  56.3798903  35.6668553  51.6073833  67.0378903
  34.9688553  51.0993833  67.1638903  35.9268553  51.4023833  66.2298903
  35.6018553  51.5023833  66.9368903  42.8288553  40.4053833  57.5678903
  42.3208553  39.7433833  57.3138903  42.8808553  40.9093833  56.8578903
  42.7618553  40.3823833  57.4258903  43.3778553  53.1003833  67.9478903
  44.1458553  53.0203833  67.5418903  42.7948553  52.9793833  67.3098903
  43.4048553  53.0703833  67.7938903  42.8288553  37.3463833  57.4588903
  42.3738553  36.9443833  56.8328903  43.6018553  37.5013833  57.0838903
  42.8758553  37.3103833  57.3108903  49.6548553  53.7033833  60.8488903
  49.1998553  54.4203833  61.0498903  49.0408553  53.1323833  60.6068903
  49.4968553  53.7253833  60.8428903  41.4268553  39.7133833  61.9808903
  41.5008553  40.2813833  61.3228903  41.5478553  40.2053833  62.6908903
  41.4548553  39.8703833  61.9888903  46.6518553  49.5483833  60.3928903
  47.3528553  49.0663833  60.5818903  45.9918553  48.9793833  60.4378903
  46.6578553  49.3933833  60.4268903  37.0278553  50.4583833  69.6048903
  37.8688553  50.5213833  69.3828903  36.9908553  50.8553833  70.3808903
  37.1468553  50.5263833  69.6868903  38.9908553  45.9693833  64.3538903
  39.1628553  45.7593833  65.1828903  38.3358553  45.4353833  64.1378903
  38.9198553  45.8593833  64.4448903  45.2188553  39.8833833  67.8688903
  45.1238553  40.2023833  68.6748903  44.6258553  39.2443833  67.8308903
  45.1168553  39.8353833  67.9828903  39.7408553  45.9073833  66.9438903
  39.7938553  46.7543833  67.1458903  39.4558553  45.5373833  67.6808903
  39.7068553  45.9773833  67.0818903  45.9178553  46.6023833  66.0738903
  45.4038553  46.1903833  66.6448903  45.7918553  47.4463833  66.2548903
  45.8238553  46.6663833  66.1848903  46.4748553  35.8273833  60.7048903
  46.5238553  35.5093833  61.5158903  46.7978553  35.1833833  60.2118903
  46.5298553  35.6853833  60.7518903  32.5618553  50.2783833  73.1548903
  33.3178553  50.6273833  73.4128903  32.7388553  49.4253833  73.0978903
  32.6998553  50.2033833  73.1848903  48.9388553  40.0633833  69.0128903
  49.7108553  39.8383833  69.3498903  48.4638553  40.2803833  69.7128903
  48.9828553  40.0623833  69.1658903  36.4828553  39.3463833  61.9828903
  36.7548553  38.9163833  61.2748903  36.3068553  38.7103833  62.5538903
  36.4968553  39.1893833  61.9628903  49.1708553  47.0413833  56.2008903
  49.2898553  46.7543833  57.0158903  49.9778553  47.0623833  55.8708903
  49.3068553  47.0023833  56.2728903  36.3068553  46.7733833  61.5318903
  37.1578553  46.6933833  61.3588903  35.9498553  46.0913833  61.1198903
  36.3798553  46.6603833  61.4448903  35.0738553  53.4983833  62.7688903
  34.4008553  53.0003833  62.5238903  35.4768553  53.6833833  62.0178903
  35.0338553  53.4523833  62.6218903  34.6238553  40.4483833  65.0648903
  35.4668553  40.6683833  65.0218903  34.2348553  41.0213833  64.5338903
  34.6908553  40.5653833  64.9798903  51.4048553  51.5503833  70.4548903
  50.7228553  51.8603833  70.0078903  51.0358553  51.0923833  71.0998903
  51.2488553  51.5283833  70.4838903  47.0658553  43.5783833  55.7858903
  46.8458553  44.3093833  55.3638903  46.6178553  43.6293833  56.5328903
  46.9668553  43.6933833  55.8338903  38.6748553  46.7803833  59.7668903
  39.3878553  47.2753833  59.8568903  38.8968553  46.2133833  59.1408903
  38.8128553  46.7693833  59.6878903  51.2528553  38.4393833  55.2388903
  50.5908553  37.8713833  55.2618903  51.0598553  38.9513833  54.5588903
  51.1268553  38.4313833  55.1418903  32.8308553  48.4233833  63.0868903
  32.1638553  48.9113833  63.3628903  33.5108553  48.9683833  63.1158903
  32.8328553  48.5753833  63.1318903  40.4778553  42.1333833  73.1828903
  39.9938553  42.7103833  73.6248903  40.4498553  42.4283833  72.3618903
  40.4018553  42.2623833  73.1268903  51.5758553  42.8173833  67.7948903
  51.7908553  42.0173833  67.5188903  50.7258553  42.8773833  67.6058903
  51.4818553  42.7083833  67.7258903  32.8968553  45.1073833  58.1898903
  32.7118553  44.2683833  58.3418903  33.5558553  45.0713833  57.6198903
  32.9668553  44.9783833  58.1278903  49.2548553  37.9973833  57.5178903
  50.0008553  37.5903833  57.7168903  49.5178553  38.7123833  57.0928903
  49.4038553  38.0433833  57.4848903  43.1978553  50.4833833  62.0938903
  42.6748553  51.1173833  61.8008903  43.5078553  50.1193833  61.3648903
  43.1658553  50.5233833  61.9428903  33.0688553  49.2713833  57.7648903
  33.6208553  49.8403833  58.1288903  32.8368553  48.7563833  58.4298903
  33.1158553  49.2793833  57.9168903  37.2728553  48.2713833  64.8538903
  37.7398553  48.5603833  65.5318903  37.8448553  47.7933833  64.3998903
  37.4268553  48.2433833  64.8868903  45.7088553  40.2853833  62.5908903
  46.0528553  40.4373833  63.3778903  45.2558553  39.5473833  62.7038903
  45.6928553  40.1983833  62.7238903  32.8988553  47.7203833  55.3928903
  33.6548553  47.2883833  55.4508903  32.9138553  48.2523833  56.0838903
  33.0128553  47.7353833  55.5038903  33.8388553  45.9413833  63.3978903
  34.2698553  45.8123833  62.6508903  33.6338553  46.7893833  63.3718903
  33.8718553  46.0473833  63.2838903  40.1848553  39.5053833  57.0478903
  40.1828553  39.3883833  56.1828903  40.0038553  40.3533833  57.1398903
  40.1578553  39.6133833  56.9338903  49.2388553  51.9323833  68.5448903
  48.5678553  52.4463833  68.7628903  49.3018553  52.0323833  67.6808903
  49.1488553  52.0233833  68.4498903  37.9228553  49.4573833  61.6798903
  38.0488553  50.3003833  61.8668903  38.5908553  49.0583833  62.0758903
  38.0408553  49.5233833  61.7658903  36.0528553  42.9403833  71.5418903
  35.5168553  42.4343833  72.0098903  36.0728553  42.5503833  70.7618903
  35.9758553  42.8073833  71.4958903  36.5378553  42.3373833  56.6818903
  36.4098553  41.8893833  57.4198903  35.9558553  41.9953833  56.1298903
  36.4328553  42.2203833  56.7098903  36.7048553  44.1673833  63.2808903
  35.9238553  44.1083833  62.8978903  36.7768553  43.4153833  63.7178903
  36.5998553  44.0483833  63.2888903  37.1348553  43.9043833  66.7488903
  37.1598553  43.2293833  66.1978903  36.4888553  44.4003833  66.4368903
  37.0438553  43.8773833  66.6218903  47.0298553  41.6173833  65.1448903
  46.3678553  41.9453833  65.6078903  47.2168553  42.2513833  64.5758903
  46.9598553  41.7593833  65.1288903  41.2348553  52.6813833  66.1408903
  40.9578553  52.0403833  65.6178903  41.0268553  53.4073833  65.7028903
  41.1638553  52.6943833  65.9988903  43.6748553  37.5233833  68.5738903
  43.8238553  36.6983833  68.3308903  44.0538553  37.5783833  69.3578903
  43.7528553  37.4093833  68.6538903  34.9338553  45.2593833  72.3078903
  34.8968553  45.7603833  71.5938903  35.2648553  44.5073833  72.0128903
  34.9768553  45.2213833  72.1588903  46.5368553  47.4643833  70.5658903
  47.0208553  48.1823833  70.6638903  46.9308553  47.0373833  69.9148903
  46.6668553  47.5073833  70.4838903  40.8328553  50.3093833  71.7428903
  41.1868553  50.1313833  72.5198903  40.3968553  49.5803833  71.5438903
  40.8208553  50.1753833  71.8288903  41.8048553  41.0563833  64.3808903
  42.2848553  41.7553833  64.5888903  42.1778553  40.4093833  64.8318903
  41.9308553  41.0643833  64.4778903  43.9938553  44.2253833  56.6548903
  43.9858553  44.9473833  56.1648903  43.3548553  44.3603833  57.2318903
  43.8988553  44.3523833  56.6678903  48.9658553  48.0953833  60.6358903
  49.3218553  47.7453833  61.3508903  48.9578553  47.4343833  60.0658903
  49.0178553  47.9453833  60.6568903  45.0108553  51.1613833  64.4798903
  44.4078553  50.8653833  63.9228903  45.5558553  51.6133833  63.9708903
  45.0018553  51.1843833  64.3218903  45.0238553  48.0123833  63.8798903
  44.2268553  48.2363833  64.1538903  45.2818553  47.4183833  64.4648903
  44.9438553  47.9573833  64.0068903  38.9158553  52.8243833  58.3278903
  38.7688553  52.0483833  58.6988903  39.6048553  52.6773833  57.8128903
  38.9958553  52.6873833  58.3068903  41.2078553  52.3403833  56.7298903
  41.8298553  52.5033833  57.3198903  41.2438553  53.0313833  56.1978903
  41.3048553  52.4663833  56.7388903  48.2838553  46.0103833  68.7258903
  48.3388553  46.1353833  67.8638903  49.0368553  46.3303833  69.0278903
  48.4028553  46.0753833  68.6428903  44.4748553  51.3593833  73.0028903
  44.6388553  51.6423833  73.8118903  44.7378553  52.0203833  72.4978903
  44.5378553  51.4993833  73.0478903  49.3158553  36.3083833  71.7128903
  48.6788553  35.9083833  71.2708903  49.3418553  35.8773833  72.4708903
  49.2258553  36.1863833  71.7588903  35.7088553  44.8743833  57.5588903
  36.0328553  44.0953833  57.3368903  36.3548553  45.2423833  58.0138903
  35.8518553  44.8133833  57.5928903  44.0148553  45.8163833  68.3258903
  43.8598553  46.4263833  68.9298903  44.5488553  45.2583833  68.7318903
  44.0708553  45.8243833  68.4748903  42.3988553  44.2163833  58.9838903
  42.4578553  44.8663833  59.5628903  42.2098553  43.5203833  59.4748903
  42.3798553  44.2093833  59.1418903  47.6248553  48.5453833  64.8528903
  47.1458553  48.8433833  64.1868903  47.2688553  47.7693833  65.0308903
  47.5018553  48.4743833  64.7808903  41.6218553  46.2633833  63.4148903
  40.7748553  46.0693833  63.4958903  41.9458553  46.0983833  64.2078903
  41.5438553  46.2103833  63.5438903  38.3738553  52.9933833  54.3008903
  38.8128553  52.2963833  54.5888903  38.5808553  53.6173833  54.8738903
  38.4698553  52.9823833  54.4278903  35.4698553  45.9563833  65.7308903
  36.1918553  46.4443833  65.6938903  35.1998553  45.9263833  64.9018903
  35.5368553  46.0243833  65.6028903  38.6998553  41.1273833  62.4658903
  39.5458553  40.9373833  62.5638903  38.3298553  40.3503833  62.3278903
  38.7698553  40.9843833  62.4598903  51.3168553  52.7113833  56.7928903
  52.0108553  52.2443833  56.5448903  50.7778553  52.1133833  57.1298903
  51.3398553  52.5533833  56.8058903  33.5208553  42.4653833  59.1208903
  34.0098553  42.1733833  59.7818903  33.6498553  41.8723833  58.4938903
  33.6118553  42.3343833  59.1258903  48.5558553  45.4873833  65.9718903
  48.5488553  44.7113833  66.3698903  47.7148553  45.7213833  65.9648903
  48.4308553  45.4073833  66.0298903  38.0458553  43.8993833  54.6068903
  37.4358553  43.4943833  55.0808903  37.6598553  44.0173833  53.8338903
  37.8988553  43.8563833  54.5628903  34.8648553  47.0083833  70.0088903
  34.4438553  46.4903833  69.4478903  34.5128553  47.7943833  69.8658903
  34.7508553  47.0483833  69.9048903  49.8118553  45.5583833  63.4088903
  49.5258553  45.9593833  64.1288903  50.6718553  45.4963833  63.5358903
  49.8968553  45.6083833  63.5338903  39.5008553  42.3603833  57.3168903
  39.7728553  43.1863833  57.3838903  38.6378553  42.4353833  57.2208903
  39.4138553  42.4933833  57.3118903  47.4738553  39.4823833  71.9488903
  46.9488553  39.9413833  72.4728903  47.1128553  38.6873833  71.9428903
  47.3428553  39.4323833  72.0248903  32.9808553  38.3303833  63.8528903
  33.0248553  38.6743833  63.0518903  33.7358553  38.5673833  64.2198903
  33.0988553  38.4163833  63.7888903  50.9428553  51.1913833  63.9378903
  51.2328553  51.4483833  63.1568903  51.6378553  51.2873833  64.4568903
  51.0888553  51.2433833  63.8988903  45.9658553  43.0513833  72.0248903
  46.0388553  43.1553833  72.8878903  45.3318553  43.6093833  71.8038903
  45.8828553  43.1493833  72.1198903  48.2338553  43.3703833  70.3898903
  48.5528553  44.1563833  70.5928903  47.8638553  43.1003833  71.1328903
  48.2268553  43.4463833  70.5298903  47.5478553  49.7943833  55.9198903
  47.8818553  48.9883833  55.9548903  46.7928553  49.7223833  56.3498903
  47.4858553  49.6643833  55.9888903  48.0298553  41.6283833  61.5788903
  47.2848553  41.3053833  61.8968903  48.0318553  42.4543833  61.8588903
  47.9198553  41.7023833  61.6668903  50.9318553  43.9123833  73.1248903
  50.8798553  43.5713833  72.3238903  51.6688553  44.3793833  73.1028903
  51.0328553  43.9313833  73.0028903  50.4698553  47.5883833  69.3308903
  51.0978553  47.0393833  69.0748903  50.4088553  48.1533833  68.6688903
  50.5538553  47.5913833  69.1948903  44.9218553  47.6693833  55.3228903
  45.6058553  47.1553833  55.1538903  44.5048553  47.7153833  54.5578903
  44.9608553  47.6003833  55.1848903  39.6038553  48.8193833  66.6268903
  39.3058553  49.4113833  67.1938903  39.6588553  49.2613833  65.8778903
  39.5678553  48.9723833  66.5998903  37.5828553  47.7693833  70.0248903
  36.7768553  47.4793833  70.1918903  37.4938553  48.6373833  70.0308903
  37.4508553  47.8543833  70.0498903  46.9418553  37.9583833  69.0398903
  47.6858553  38.4103833  68.9768903  46.3758553  38.4283833  68.5708903
  46.9688553  38.0953833  68.9618903  42.1198553  45.2423833  66.1178903
  42.5958553  45.6163833  66.7458903  41.2968553  45.3763833  66.3768903
  42.0688553  45.3173833  66.2488903  38.8298553  40.8453833  68.8588903
  38.9908553  40.1013833  69.2858903  38.7848553  40.5963833  68.0238903
  38.8468553  40.6983833  68.7988903  41.3838553  52.6353833  61.3458903
  41.9298553  53.3143833  61.3998903  41.0338553  52.7173833  60.5508903
  41.4128553  52.7483833  61.2358903  48.2268553  35.9383833  66.7098903
  47.9468553  36.7633833  66.6658903  48.9428553  35.9913833  67.2058903
  48.2918553  36.0683833  66.7768903  40.5818553  36.6533833  68.7388903
  41.2868553  36.9733833  68.3368903  40.8228553  35.8463833  68.9658903
  40.7208553  36.5813833  68.7128903  39.5668553  50.8633833  64.7348903
  38.9428553  51.4453833  64.5528903  39.8148553  50.5773833  63.9488903
  39.5108553  50.9073833  64.5918903  43.8758553  47.4973833  71.7238903
  44.6328553  47.7833833  71.3978903  43.3288553  47.5493833  71.0458903
  43.9068553  47.5473833  71.5748903  47.7848553  50.0473833  70.2278903
  48.1308553  50.3173833  70.9818903  48.0788553  50.6293833  69.6478903
  47.8798553  50.1733833  70.2538903  49.6478553  42.1933833  55.5668903
  50.0258553  42.8703833  55.1668903  48.8058553  42.4173833  55.5978903
  49.5788553  42.3263833  55.5118903  41.1608553  45.6393833  54.6498903
  40.3558553  45.4623833  54.3648903  41.1278553  46.4903833  54.8418903
  41.0368553  45.7383833  54.6368903  37.0908553  41.7063833  64.7998903
  37.5308553  41.6033833  64.0538903  37.6358553  41.3933833  65.4048903
  37.2358553  41.6453833  64.7788903  45.1068553  40.8083833  70.3918903
  44.4588553  41.2783833  70.7398903  45.6718553  40.7193833  71.0508903
  45.0948553  40.8643833  70.5408903  44.7948553  42.3453833  66.6898903
  45.0968553  42.7653833  67.3928903  44.8308553  41.5053833  66.9218903
  44.8448553  42.2833833  66.8278903  42.2198553  52.5123833  70.6148903
  42.6978553  51.9123833  70.1988903  41.8688553  52.0693833  71.2798903
  42.2388553  52.3583833  70.6518903  47.3428553  41.7923833  58.9418903
  47.5498553  41.5913833  59.7658903  48.0988553  42.0603833  58.5998903
  47.4848553  41.8023833  59.0128903  40.6378553  36.6913833  64.8468903
  39.8118553  36.5423833  65.0838903  40.5978553  36.7263833  63.9758903
  40.5098553  36.6743833  64.7528903  48.3648553  37.8753833  60.4158903
  47.6508553  37.4043833  60.5868903  48.2028553  38.2163833  59.6298903
  48.2358553  37.8563833  60.3248903  48.8078553  45.8193833  58.7958903
  49.2838553  45.0903833  58.7478903  47.9868553  45.5333833  58.7198903
  48.7568553  45.6693833  58.7768903  42.2788553  47.7313833  69.6348903
  41.4838553  47.6673833  69.9858903  42.3498553  48.5783833  69.4398903
  42.1718553  47.8463833  69.6578903  33.2028553  37.0893833  70.8818903
  33.0628553  37.8843833  70.5508903  32.4168553  36.8463833  71.1708903
  33.0658553  37.1713833  70.8758903  38.1088553  53.9383833  64.9518903
  38.1198553  53.9973833  65.8218903  37.6838553  53.1913833  64.8018903
  38.0478553  53.8363833  65.0578903  36.2668553  39.8333833  58.1068903
  36.3928553  39.5043833  57.3088903  35.4548553  39.5843833  58.3058903
  36.1658553  39.7483833  58.0188903  45.0238553  46.9863833  61.1508903
  45.0998553  47.3273833  61.9498903  45.1928553  46.1393833  61.2718903
  45.0598553  46.9113833  61.2868903  42.5458553  46.2603833  60.7158903
  42.2478553  45.9453833  61.4728903  43.2408553  46.7333833  60.9508903
  42.6048553  46.2833833  60.8628903  42.7678553  50.3783833  68.7428903
  43.4548553  50.2643833  69.2678903  42.9018553  51.1693833  68.3988903
  42.8888553  50.4783833  68.7698903  50.9438553  42.9873833  70.5538903
  50.0888553  42.8653833  70.6798903  51.0968553  42.5923833  69.7908903
  50.8398553  42.9103833  70.4598903  45.4568553  43.6523833  69.1298903
  45.2018553  42.9333833  69.5518903  46.2778553  43.7683833  69.3998903
  45.5408553  43.5633833  69.2318903  34.8728553  53.4363833  70.3938903
  34.2188553  52.8673833  70.4918903  34.4978553  54.2093833  70.5448903
  34.7208553  53.4663833  70.4308903  43.3908553  44.8423833  72.3168903
  43.7138553  45.5283833  71.8848903  42.6868553  45.1653833  72.7188903
  43.3338553  44.9913833  72.3118903  46.4748553  53.2163833  63.2458903
  46.0238553  53.8593833  63.6248903  47.1828553  53.1373833  63.7508903
  46.5128553  53.2993833  63.3768903  43.1758553  48.3063833  66.1758903
  42.4818553  48.7083833  66.5188903  43.8528553  48.7393833  66.5148903
  43.1728553  48.4293833  66.2768903  48.5528553  50.8993833  72.7558903
  49.3288553  50.5093833  72.8388903  48.0838553  50.5633833  73.4108903
  48.5978553  50.7923833  72.8648903  36.2438553  41.8443833  68.5228903
  36.6188553  42.4633833  68.0358903  36.9178553  41.3703833  68.8078903
  36.3988553  41.8663833  68.4928903  34.0188553  40.2923833  67.7978903
  34.0958553  40.1233833  66.9448903  34.7648553  40.6983833  67.9948903
  34.1398553  40.3273833  67.7008903  49.5778553  42.9323833  58.2378903
  49.6808553  42.8743833  57.3738903  50.3188553  42.6003833  58.5558903
  49.7028553  42.8753833  58.1568903  36.5728553  37.7023833  70.2088903
  36.4918553  36.8583833  70.4148903  36.2588553  37.7463833  69.3958903
  36.5148553  37.5843833  70.1188903  43.4978553  49.8973833  59.3448903
  43.2928553  50.7303833  59.1858903  42.7228553  49.5153833  59.4668903
  43.3528553  49.9643833  59.3398903  48.6798553  43.0783833  67.5938903
  48.6778553  42.2153833  67.7178903  48.7468553  43.4023833  68.4008903
  48.6898553  42.9983833  67.7308903  33.4158553  45.5183833  68.0218903
  33.7358553  45.7373833  67.2408903  33.3158553  44.6533833  67.9668903
  33.4478553  45.4233833  67.8988903  34.8718553  41.4543833  54.6398903
  34.1998553  41.4683833  55.1958903  34.9668553  40.6063833  54.4558903
  34.7868553  41.3313833  54.6948903  44.5588553  37.8783833  71.3758903
  44.6508553  38.5903833  71.8698903  43.9218553  37.4333833  71.7728903
  44.4778553  37.9173833  71.5078903  43.5528553  38.0683833  62.2298903
  42.8528553  38.5863833  62.1738903  43.5908553  37.6883833  61.4458903
  43.4548553  38.0893833  62.1058903  38.8598553  50.1593833  55.7538903
  39.3008553  50.2393833  56.5018903  38.0548553  49.9433833  56.0118903
  38.8058553  50.1393833  55.9028903  47.1508553  38.5843833  65.0298903
  48.0058553  38.6833833  65.1748903  46.7818553  39.1373833  65.5948903
  47.2228553  38.6813833  65.1348903  38.1788553  44.8103833  69.4068903
  37.7828553  45.5843833  69.4818903  37.7728553  44.4373833  68.7308903
  38.0608553  44.8693833  69.3178903  47.4548553  43.8643833  63.5208903
  48.1208553  44.4053833  63.6808903  47.1098553  44.1753833  62.7818903
  47.5018553  43.9903833  63.4358903  47.7678553  51.9303833  59.3278903
  47.5938553  51.2763833  59.8778903  48.4808553  51.6593833  58.9048903
  47.8478553  51.7933833  59.3468903  36.1888553  49.2293833  56.3548903
  35.9448553  48.9223833  57.1348903  36.1558553  48.5263833  55.8388903
  36.1478553  49.0803833  56.3938903  39.0078553  47.4743833  55.0978903
  38.1898553  47.2063833  55.2378903  38.9798553  48.3263833  55.2828903
  38.8828553  47.5613833  55.1458903  38.6078553  37.7873833  66.8568903
  37.7438553  37.8713833  66.9368903  38.8278553  37.2733833  67.5258903
  38.5128553  37.7243833  66.9678903  42.7108553  38.5353833  65.2308903
  41.9738553  38.0813833  65.3438903  43.2818553  38.1333833  65.7538903
  42.6858553  38.4083833  65.3248903  45.4428553  49.3833833  67.0188903
  45.6488553  49.6843833  67.8108903  45.3818553  50.1053833  66.5338903
  45.4638553  49.5343833  67.0638903  44.9768553  53.5973833  71.2648903
  44.2238553  53.5793833  70.8238903  45.1448553  54.4493833  71.3488903
  44.8908553  53.7203833  71.2118903  40.2138553  42.8643833  70.4348903
  39.8918553  42.2883833  69.8648903  39.8548553  43.6193833  70.1888903
  40.1138553  42.8903833  70.3148903  50.2548553  48.0223833  66.4768903
  50.2228553  47.1603833  66.3418903  49.5618553  48.3243833  66.0428903
  50.1478553  47.9393833  66.3928903  38.6488553  53.2203833  70.6828903
  38.6898553  53.3463833  71.5458903  39.2998553  52.6603833  70.5268903
  38.7508553  53.1563833  70.7878903  48.3598553  51.2823833  65.2738903
  48.8868553  51.1993833  64.5828903  47.9688553  50.5043833  65.3278903
  48.3798553  51.1553833  65.1798903  35.8278553  37.8703833  67.5048903
  35.4848553  37.1033833  67.2708903  35.1328553  38.3943833  67.5688903
  35.6748553  37.8343833  67.4798903  44.8738553  36.7263833  64.4818903
  45.5438553  37.2703833  64.6088903  44.3708553  37.1503833  63.9088903
  44.8988553  36.8693833  64.4158903  36.2418553  51.6033833  72.0428903
  36.8368553  52.0343833  72.5148903  35.8778553  52.2273833  71.5538903
  36.2758553  51.7593833  72.0398903  44.2328553  42.5343833  61.9748903
  44.7838553  41.9273833  62.2748903  43.8078553  42.7973833  62.6898903
  44.2518553  42.4833833  62.1238903  34.4808553  41.1843833  61.4608903
  34.1128553  41.4863833  62.1918903  35.0148553  40.5553833  61.7448903
  34.5048553  41.1363833  61.6108903  34.1688553  49.5923833  68.9718903
  33.5948553  50.0083833  69.4808903  34.9018553  50.0573833  69.0668903
  34.1928553  49.7223833  69.0608903  46.2028553  44.3653833  58.5368903
  46.2708553  43.5153833  58.7178903  45.3798553  44.4513833  58.2588903
  46.0908553  44.2523833  58.5228903  35.9548553  52.8593833  57.7468903
  35.8098553  53.0153833  56.9008903  36.8208553  52.9383833  57.8248903
  36.0618553  52.8943833  57.6338903  40.1218553  45.2563833  57.4748903
  40.2218553  45.3953833  56.6198903  40.9398553  45.1963833  57.7708903
  40.2568553  45.2673833  57.3918903  49.2818553  53.3203833  54.9548903
  49.9188553  53.1863833  55.5358903  48.9408553  52.5263833  54.8378903
  49.3258553  53.1833833  55.0228903  49.4768553  45.7383833  71.6878903
  50.1108553  45.5683833  72.2618903  49.8938553  46.1413833  71.0358903
  49.6318553  45.7733833  71.6768903  45.3568553  49.5853833  57.2768903
  45.1058553  49.4573833  58.1028903  45.0398553  48.8903833  56.8558903
  45.2728553  49.4643833  57.3368903  50.1018553  40.3023833  72.4258903
  49.9058553  40.9463833  72.9808903  49.3798553  39.8123833  72.4178903
  49.9668553  40.3253833  72.5068903  50.0008553  41.2433833  65.3968903
  49.1678553  41.4933833  65.3248903  49.9448553  40.4033833  65.6258903
  49.8698553  41.1563833  65.4198903  39.2608553  38.2313833  70.5908903
  39.4948553  37.6553833  69.9778903  38.4188553  38.0503833  70.7318903
  39.1708553  38.1193833  70.5208903  46.8878553  45.8493833  73.0428903
  47.7588553  45.8133833  73.0068903  46.6688553  46.2693833  72.3108903
  46.9848553  45.9053833  72.9298903  36.6418553  51.6743833  64.2238903
  36.5628553  50.8643833  63.9078903  36.1978553  52.1613833  63.6518903
  36.5648553  51.6263833  64.0928903  42.2428553  47.7933833  56.7068903
  42.9598553  47.4463833  56.3508903  42.2088553  48.5933833  56.3588903
  42.3438553  47.8603833  56.6028903  34.2138553  53.9183833  67.8048903
  34.7068553  53.8623833  68.5228903  34.4018553  53.1853833  67.3698903
  34.3148553  53.8013833  67.8468903  43.6518553  36.4343833  40.9456493
  43.4068553  36.9223833  40.2656493  44.5148553  36.3613833  40.8456493
  43.7428553  36.4953833  40.8306493  43.4608553  43.3503833  45.6166493
  42.9368553  43.9463833  45.9796493  43.8578553  42.9823833  46.3006493
  43.4418553  43.3843833  45.7716493  33.3298553  47.4903833  41.0726493
  32.8888553  47.6083833  41.8156493  33.0468553  46.7153833  40.7876493
  33.2228553  47.3933833  41.1406493  49.6048553  50.7913833  38.5876493
  50.3058553  50.2723833  38.5836493  49.0178553  50.3463833  38.1186493
  49.6218553  50.6483833  38.5176493  36.2118553  46.5453833  36.2516493
  35.8198553  46.1743833  35.5656493  36.1318553  45.9473833  36.8806493
  36.1418553  46.4023833  36.2426493  46.1318553  44.4173833  42.2926493
  46.2118553  44.4213833  41.4236493  45.5478553  43.7853833  42.4416493
  46.0568553  44.3243833  42.1866493  35.8388553  48.1863833  40.1516493
  36.4468553  48.0163833  40.7546493  35.0878553  48.0463833  40.5726493
  35.8178553  48.1403833  40.3026493  40.1208553  37.5213833  40.1006493
  40.0508553  38.1983833  39.5546493  40.8618553  37.1333833  39.8516493
  40.2198553  37.5643833  39.9826493  34.7298553  51.2773833  36.2286493
  35.1968553  51.3613833  35.4966493  35.1848553  50.6993833  36.6976493
  34.8658553  51.2043833  36.1896493  33.2698553  50.2253833  47.3276493
  33.3988553  49.9453833  48.1436493  32.6598553  49.6843833  47.0186493
  33.1988553  50.1043833  47.4026493  39.8438553  47.7503833  52.3946493
  39.6078553  47.7473833  53.2346493  39.0958553  47.6023833  51.9706493
  39.6978553  47.7273833  52.4556493  34.7158553  44.7463833  41.5296493
  34.2538553  44.3543833  40.9026493  35.4158553  44.2333833  41.6216493
  34.7508553  44.6133833  41.4506493  39.2238553  40.3563833  46.8766493
  39.9018553  40.3743833  46.3276493  39.1788553  39.5203833  47.1216493
  39.3168553  40.2353833  46.8316493  39.8258553  50.9423833  49.6576493
  39.9638553  51.7023833  49.2506493  40.6168553  50.5773833  49.6846493
  39.9628553  51.0013833  49.6016493  36.7168553  42.8463833  41.5526493
  37.5338553  42.6593833  41.7956493  36.2398553  42.2323833  41.9486493
  36.7668553  42.7283833  41.6476493  40.9208553  48.8273833  44.1626493
  41.2688553  48.0283833  44.1926493  41.5858553  49.3313833  43.9076493
  41.0708553  48.7833833  44.1296493  40.9778553  48.2763833  40.3736493
  41.3088553  47.6323833  40.8596493  41.2178553  48.0653833  39.5626493
  41.0618553  48.1503833  40.3256493  42.9458553  42.4073833  51.7126493
  42.0978553  42.3083833  51.5346493  42.9748553  43.1523833  52.1666493
  42.8248553  42.5033833  51.7536493  37.3138553  37.9403833  40.8186493
  37.0178553  38.4413833  40.1686493  38.1808553  38.0183833  40.7616493
  37.3978553  38.0263833  40.7146493  47.5038553  35.3673833  50.8266493
  47.3458553  36.1363833  50.4446493  46.7318553  35.1473833  51.1706493
  47.3658553  35.4483833  50.8216493  40.2928553  37.0823833  43.0416493
  40.3658553  37.9423833  43.1706493  40.2548553  37.0073833  42.1736493
  40.2978553  37.1983833  42.9326493  44.9658553  40.0083833  35.3406493
  44.5158553  40.6893833  35.6476493  45.0798553  39.5043833  36.0436493
  44.9168553  40.0343833  35.4896493  33.0818553  52.2173833  42.4426493
  32.4898553  52.7753833  42.1296493  33.5078553  51.9483833  41.7306493
  33.0578553  52.2593833  42.2916493  38.9218553  50.0613833  39.9226493
  38.3428553  49.7863833  40.5146493  39.5458553  49.4523833  39.9476493
  38.9288553  49.9313833  40.0136493  45.0648553  52.3493833  37.4446493
  45.7918553  52.8213833  37.5466493  45.2938553  51.5553833  37.7246493
  45.2068553  52.3023833  37.5016493  43.2328553  52.7413833  39.4346493
  43.4468553  53.2683833  40.0966493  43.9998553  52.5673833  39.0556493
  43.3778553  52.7933833  39.4766493  36.2008553  37.3243833  45.0336493
  35.6798553  36.6963833  44.7256493  36.7918553  36.8873833  45.5046493
  36.2118553  37.1663833  45.0576493  34.6268553  50.8873833  40.3736493
  35.2828553  50.3123833  40.3886493  35.0158553  51.6363833  40.1526493
  34.7818553  50.9123833  40.3436493  50.3598553  39.9813833  41.6356493
  50.0138553  40.6593833  42.0616493  49.7238553  39.3833833  41.6516493
  50.2148553  39.9933833  41.7006493  45.6718553  52.7513833  47.7396493
  46.4158553  53.2073833  47.7296493  45.5508553  52.5373833  46.9026493
  45.7638553  52.7873833  47.6146493  35.4448553  49.3743833  43.8736493
  35.8678553  49.0183833  43.1996493  35.7688553  48.9523833  44.5656493
  35.5548553  49.2593833  43.8766493  38.6758553  52.2263833  43.1696493
  39.5198553  52.3303833  42.9746493  38.3788553  53.0443833  43.2376493
  38.7568553  52.3623833  43.1506493  42.4828553  41.6233833  41.2566493
  42.7698553  41.3913833  40.4666493  43.2148553  41.7023833  41.7256493
  42.6328553  41.6003833  41.2096493  43.2048553  41.9623833  36.3776493
  43.4858553  42.7503833  36.6266493  42.4288553  42.1273833  36.0146493
  43.1318553  42.1033833  36.3606493  47.2458553  53.9363833  37.8446493
  47.9108553  53.7883833  37.2996493  47.6058553  53.8533833  38.6346493
  47.3978553  53.9023833  37.8806493  37.6738553  53.4453833  48.9096493
  37.9658553  53.3783833  49.7296493  37.0478553  52.8403833  48.8646493
  37.6248553  53.3463833  49.0246493  50.0348553  38.3043833  47.0046493
  50.7918553  38.3763833  46.5766493  50.0978553  37.5313833  47.4036493
  50.1558553  38.2013833  46.9996493  44.9258553  49.9363833  51.4436493
  44.8918553  50.3183833  52.2276493  45.7798553  49.8943833  51.2726493
  45.0468553  49.9863833  51.5346493  42.0638553  50.1333833  36.1936493
  41.8828553  50.6783833  36.8506493  42.8298553  50.4233833  35.8926493
  42.1498553  50.2573833  36.2466493  45.5708553  38.0293833  37.2476493
  46.1108553  37.3473833  37.3236493  45.6328553  38.4273833  38.0216493
  45.6598553  37.9873833  37.3736493  35.6668553  51.6073833  48.0316493
  34.9688553  51.0993833  48.1576493  35.9268553  51.4023833  47.2236493
  35.6018553  51.5023833  47.9306493  42.8288553  40.4053833  38.5616493
  42.3208553  39.7433833  38.3076493  42.8808553  40.9093833  37.8516493
  42.7618553  40.3823833  38.4196493  43.3778553  53.1003833  48.9416493
  44.1458553  53.0203833  48.5356493  42.7948553  52.9793833  48.3036493
  43.4048553  53.0703833  48.7876493  42.8288553  37.3463833  38.4526493
  42.3738553  36.9443833  37.8266493  43.6018553  37.5013833  38.0776493
  42.8758553  37.3103833  38.3046493  49.6548553  53.7033833  41.8426493
  49.1998553  54.4203833  42.0436493  49.0408553  53.1323833  41.6006493
  49.4968553  53.7253833  41.8366493  41.4268553  39.7133833  42.9746493
  41.5008553  40.2813833  42.3166493  41.5478553  40.2053833  43.6846493
  41.4548553  39.8703833  42.9826493  46.6518553  49.5483833  41.3866493
  47.3528553  49.0663833  41.5756493  45.9918553  48.9793833  41.4316493
  46.6578553  49.3933833  41.4206493  37.0278553  50.4583833  50.5986493
  37.8688553  50.5213833  50.3766493  36.9908553  50.8553833  51.3746493
  37.1468553  50.5263833  50.6806493  36.0348553  35.5363833  41.3226493
  36.5708553  36.2243833  41.3126493  36.0378553  35.2623833  40.4946493
  36.1138553  35.5973833  41.1986493  38.9908553  45.9693833  45.3476493
  39.1628553  45.7593833  46.1766493  38.3358553  45.4353833  45.1316493
  38.9198553  45.8593833  45.4386493  45.2188553  39.8833833  48.8626493
  45.1238553  40.2023833  49.6686493  44.6258553  39.2443833  48.8246493
  45.1168553  39.8353833  48.9766493  39.7408553  45.9073833  47.9376493
  39.7938553  46.7543833  48.1396493  39.4558553  45.5373833  48.6746493
  39.7068553  45.9773833  48.0756493  45.9178553  46.6023833  47.0676493
  45.4038553  46.1903833  47.6386493  45.7918553  47.4463833  47.2486493
  45.8238553  46.6663833  47.1786493  46.4748553  35.8273833  41.6986493
  46.5238553  35.5093833  42.5096493  46.7978553  35.1833833  41.2056493
  46.5298553  35.6853833  41.7456493  32.5618553  50.2783833  54.1486493
  33.3178553  50.6273833  54.4066493  32.7388553  49.4253833  54.0916493
  32.6998553  50.2033833  54.1786493  48.9388553  40.0633833  50.0066493
  49.7108553  39.8383833  50.3436493  48.4638553  40.2803833  50.7066493
  48.9828553  40.0623833  50.1596493  36.4828553  39.3463833  42.9766493
  36.7548553  38.9163833  42.2686493  36.3068553  38.7103833  43.5476493
  36.4968553  39.1893833  42.9566493  49.1708553  47.0413833  37.1946493
  49.2898553  46.7543833  38.0096493  49.9778553  47.0623833  36.8646493
  49.3068553  47.0023833  37.2666493  36.3068553  46.7733833  42.5256493
  37.1578553  46.6933833  42.3526493  35.9498553  46.0913833  42.1136493
  36.3798553  46.6603833  42.4386493  35.0738553  53.4983833  43.7626493
  34.4008553  53.0003833  43.5176493  35.4768553  53.6833833  43.0116493
  35.0338553  53.4523833  43.6156493  51.4048553  51.5503833  51.4486493
  50.7228553  51.8603833  51.0016493  51.0358553  51.0923833  52.0936493
  51.2488553  51.5283833  51.4776493  47.0658553  43.5783833  36.7796493
  46.8458553  44.3093833  36.3576493  46.6178553  43.6293833  37.5266493
  46.9668553  43.6933833  36.8276493  38.6748553  46.7803833  40.7606493
  39.3878553  47.2753833  40.8506493  38.8968553  46.2133833  40.1346493
  38.8128553  46.7693833  40.6816493  51.2528553  38.4393833  36.2326493
  50.5908553  37.8713833  36.2556493  51.0598553  38.9513833  35.5526493
  51.1268553  38.4313833  36.1356493  32.8308553  48.4233833  44.0806493
  32.1638553  48.9113833  44.3566493  33.5108553  48.9683833  44.1096493
  32.8328553  48.5753833  44.1256493  40.4778553  42.1333833  54.1766493
  39.9938553  42.7103833  54.6186493  40.4498553  42.4283833  53.3556493
  40.4018553  42.2623833  54.1206493  51.5758553  42.8173833  48.7886493
  51.7908553  42.0173833  48.5126493  50.7258553  42.8773833  48.5996493
  51.4818553  42.7083833  48.7196493  32.8968553  45.1073833  39.1836493
  32.7118553  44.2683833  39.3356493  33.5558553  45.0713833  38.6136493
  32.9668553  44.9783833  39.1216493  49.2548553  37.9973833  38.5116493
  50.0008553  37.5903833  38.7106493  49.5178553  38.7123833  38.0866493
  49.4038553  38.0433833  38.4786493  43.1978553  50.4833833  43.0876493
  42.6748553  51.1173833  42.7946493  43.5078553  50.1193833  42.3586493
  43.1658553  50.5233833  42.9366493  33.0688553  49.2713833  38.7586493
  33.6208553  49.8403833  39.1226493  32.8368553  48.7563833  39.4236493
  33.1158553  49.2793833  38.9106493  37.2728553  48.2713833  45.8476493
  37.7398553  48.5603833  46.5256493  37.8448553  47.7933833  45.3936493
  37.4268553  48.2433833  45.8806493  45.7088553  40.2853833  43.5846493
  46.0528553  40.4373833  44.3716493  45.2558553  39.5473833  43.6976493
  45.6928553  40.1983833  43.7176493  32.8988553  47.7203833  36.3866493
  33.6548553  47.2883833  36.4446493  32.9138553  48.2523833  37.0776493
  33.0128553  47.7353833  36.4976493  33.8388553  45.9413833  44.3916493
  34.2698553  45.8123833  43.6446493  33.6338553  46.7893833  44.3656493
  33.8718553  46.0473833  44.2776493  40.1848553  39.5053833  38.0416493
  40.1828553  39.3883833  37.1766493  40.0038553  40.3533833  38.1336493
  40.1578553  39.6133833  37.9276493  49.2388553  51.9323833  49.5386493
  48.5678553  52.4463833  49.7566493  49.3018553  52.0323833  48.6746493
  49.1488553  52.0233833  49.4436493  37.9228553  49.4573833  42.6736493
  38.0488553  50.3003833  42.8606493  38.5908553  49.0583833  43.0696493
  38.0408553  49.5233833  42.7596493  36.0528553  42.9403833  52.5356493
  35.5168553  42.4343833  53.0036493  36.0728553  42.5503833  51.7556493
  35.9758553  42.8073833  52.4896493  36.5378553  42.3373833  37.6756493
  36.4098553  41.8893833  38.4136493  35.9558553  41.9953833  37.1236493
  36.4328553  42.2203833  37.7036493  36.7048553  44.1673833  44.2746493
  35.9238553  44.1083833  43.8916493  36.7768553  43.4153833  44.7116493
  36.5998553  44.0483833  44.2826493  37.1348553  43.9043833  47.7426493
  37.1598553  43.2293833  47.1916493  36.4888553  44.4003833  47.4306493
  37.0438553  43.8773833  47.6156493  47.0298553  41.6173833  46.1386493
  46.3678553  41.9453833  46.6016493  47.2168553  42.2513833  45.5696493
  46.9598553  41.7593833  46.1226493  41.2348553  52.6813833  47.1346493
  40.9578553  52.0403833  46.6116493  41.0268553  53.4073833  46.6966493
  41.1638553  52.6943833  46.9926493  43.6748553  37.5233833  49.5676493
  43.8238553  36.6983833  49.3246493  44.0538553  37.5783833  50.3516493
  43.7528553  37.4093833  49.6476493  45.2228553  39.5863833  39.6496493
  45.7128553  40.3033833  39.5726493  44.4328553  39.8473833  39.3866493
  45.1788553  39.7303833  39.5996493  34.9338553  45.2593833  53.3016493
  34.8968553  45.7603833  52.5876493  35.2648553  44.5073833  53.0066493
  34.9768553  45.2213833  53.1526493  46.5368553  47.4643833  51.5596493
  47.0208553  48.1823833  51.6576493  46.9308553  47.0373833  50.9086493
  46.6668553  47.5073833  51.4776493  40.8328553  50.3093833  52.7366493
  41.1868553  50.1313833  53.5136493  40.3968553  49.5803833  52.5376493
  40.8208553  50.1753833  52.8226493  41.8048553  41.0563833  45.3746493
  42.2848553  41.7553833  45.5826493  42.1778553  40.4093833  45.8256493
  41.9308553  41.0643833  45.4716493  43.9938553  44.2253833  37.6486493
  43.9858553  44.9473833  37.1586493  43.3548553  44.3603833  38.2256493
  43.8988553  44.3523833  37.6616493  48.9658553  48.0953833  41.6296493
  49.3218553  47.7453833  42.3446493  48.9578553  47.4343833  41.0596493
  49.0178553  47.9453833  41.6506493  45.0108553  51.1613833  45.4736493
  44.4078553  50.8653833  44.9166493  45.5558553  51.6133833  44.9646493
  45.0018553  51.1843833  45.3156493  45.0238553  48.0123833  44.8736493
  44.2268553  48.2363833  45.1476493  45.2818553  47.4183833  45.4586493
  44.9438553  47.9573833  45.0006493  38.9158553  52.8243833  39.3216493
  38.7688553  52.0483833  39.6926493  39.6048553  52.6773833  38.8066493
  38.9958553  52.6873833  39.3006493  38.5868553  36.5673833  37.3096493
  38.6838553  36.4603833  38.1706493  37.8788553  37.0733833  37.2446493
  38.4968553  36.6263833  37.4276493  41.2078553  52.3403833  37.7236493
  41.8298553  52.5033833  38.3136493  41.2438553  53.0313833  37.1916493
  41.3048553  52.4663833  37.7326493  48.2838553  46.0103833  49.7196493
  48.3388553  46.1353833  48.8576493  49.0368553  46.3303833  50.0216493
  48.4028553  46.0753833  49.6366493  44.4748553  51.3593833  53.9966493
  44.6388553  51.6423833  54.8056493  44.7378553  52.0203833  53.4916493
  44.5378553  51.4993833  54.0416493  49.3158553  36.3083833  52.7066493
  48.6788553  35.9083833  52.2646493  49.3418553  35.8773833  53.4646493
  49.2258553  36.1863833  52.7526493  35.7088553  44.8743833  38.5526493
  36.0328553  44.0953833  38.3306493  36.3548553  45.2423833  39.0076493
  35.8518553  44.8133833  38.5866493  44.0148553  45.8163833  49.3196493
  43.8598553  46.4263833  49.9236493  44.5488553  45.2583833  49.7256493
  44.0708553  45.8243833  49.4686493  42.3988553  44.2163833  39.9776493
  42.4578553  44.8663833  40.5566493  42.2098553  43.5203833  40.4686493
  42.3798553  44.2093833  40.1356493  47.6248553  48.5453833  45.8466493
  47.1458553  48.8433833  45.1806493  47.2688553  47.7693833  46.0246493
  47.5018553  48.4743833  45.7746493  36.8948553  38.7333833  36.4896493
  36.3838553  38.7863833  35.7836493  37.6788553  38.9733833  36.1936493
  36.9348553  38.7763833  36.3416493  41.6218553  46.2633833  44.4086493
  40.7748553  46.0693833  44.4896493  41.9458553  46.0983833  45.2016493
  41.5438553  46.2103833  44.5376493  38.3738553  52.9933833  35.2946493
  38.8128553  52.2963833  35.5826493  38.5808553  53.6173833  35.8676493
  38.4698553  52.9823833  35.4216493  35.4698553  45.9563833  46.7246493
  36.1918553  46.4443833  46.6876493  35.1998553  45.9263833  45.8956493
  35.5368553  46.0243833  46.5966493  38.6998553  41.1273833  43.4596493
  39.5458553  40.9373833  43.5576493  38.3298553  40.3503833  43.3216493
  38.7698553  40.9843833  43.4536493  51.3168553  52.7113833  37.7866493
  52.0108553  52.2443833  37.5386493  50.7778553  52.1133833  38.1236493
  51.3398553  52.5533833  37.7996493  33.5208553  42.4653833  40.1146493
  34.0098553  42.1733833  40.7756493  33.6498553  41.8723833  39.4876493
  33.6118553  42.3343833  40.1196493  48.5558553  45.4873833  46.9656493
  48.5488553  44.7113833  47.3636493  47.7148553  45.7213833  46.9586493
  48.4308553  45.4073833  47.0236493  38.0458553  43.8993833  35.6006493
  37.4358553  43.4943833  36.0746493  37.6598553  44.0173833  34.8276493
  37.8988553  43.8563833  35.5566493  34.8648553  47.0083833  51.0026493
  34.4438553  46.4903833  50.4416493  34.5128553  47.7943833  50.8596493
  34.7508553  47.0483833  50.8986493  49.8118553  45.5583833  44.4026493
  49.5258553  45.9593833  45.1226493  50.6718553  45.4963833  44.5296493
  49.8968553  45.6083833  44.5276493  39.5008553  42.3603833  38.3106493
  39.7728553  43.1863833  38.3776493  38.6378553  42.4353833  38.2146493
  39.4138553  42.4933833  38.3056493  47.4738553  39.4823833  52.9426493
  46.9488553  39.9413833  53.4666493  47.1128553  38.6873833  52.9366493
  47.3428553  39.4323833  53.0186493  50.9428553  51.1913833  44.9316493
  51.2328553  51.4483833  44.1506493  51.6378553  51.2873833  45.4506493
  51.0888553  51.2433833  44.8926493  45.9658553  43.0513833  53.0186493
  46.0388553  43.1553833  53.8816493  45.3318553  43.6093833  52.7976493
  45.8828553  43.1493833  53.1136493  48.2338553  43.3703833  51.3836493
  48.5528553  44.1563833  51.5866493  47.8638553  43.1003833  52.1266493
  48.2268553  43.4463833  51.5236493  47.5478553  49.7943833  36.9136493
  47.8818553  48.9883833  36.9486493  46.7928553  49.7223833  37.3436493
  47.4858553  49.6643833  36.9826493  48.0298553  41.6283833  42.5726493
  47.2848553  41.3053833  42.8906493  48.0318553  42.4543833  42.8526493
  47.9198553  41.7023833  42.6606493  50.9318553  43.9123833  54.1186493
  50.8798553  43.5713833  53.3176493  51.6688553  44.3793833  54.0966493
  51.0328553  43.9313833  53.9966493  50.4698553  47.5883833  50.3246493
  51.0978553  47.0393833  50.0686493  50.4088553  48.1533833  49.6626493
  50.5538553  47.5913833  50.1886493  44.9218553  47.6693833  36.3166493
  45.6058553  47.1553833  36.1476493  44.5048553  47.7153833  35.5516493
  44.9608553  47.6003833  36.1786493  39.6038553  48.8193833  47.6206493
  39.3058553  49.4113833  48.1876493  39.6588553  49.2613833  46.8716493
  39.5678553  48.9723833  47.5936493  37.5828553  47.7693833  51.0186493
  36.7768553  47.4793833  51.1856493  37.4938553  48.6373833  51.0246493
  37.4508553  47.8543833  51.0436493  46.9418553  37.9583833  50.0336493
  47.6858553  38.4103833  49.9706493  46.3758553  38.4283833  49.5646493
  46.9688553  38.0953833  49.9556493  42.1198553  45.2423833  47.1116493
  42.5958553  45.6163833  47.7396493  41.2968553  45.3763833  47.3706493
  42.0688553  45.3173833  47.2426493  38.8298553  40.8453833  49.8526493
  38.9908553  40.1013833  50.2796493  38.7848553  40.5963833  49.0176493
  38.8468553  40.6983833  49.7926493  41.3838553  52.6353833  42.3396493
  41.9298553  53.3143833  42.3936493  41.0338553  52.7173833  41.5446493
  41.4128553  52.7483833  42.2296493  48.2268553  35.9383833  47.7036493
  47.9468553  36.7633833  47.6596493  48.9428553  35.9913833  48.1996493
  48.2918553  36.0683833  47.7706493  40.5818553  36.6533833  49.7326493
  41.2868553  36.9733833  49.3306493  40.8228553  35.8463833  49.9596493
  40.7208553  36.5813833  49.7066493  39.5668553  50.8633833  45.7286493
  38.9428553  51.4453833  45.5466493  39.8148553  50.5773833  44.9426493
  39.5108553  50.9073833  45.5856493  43.8758553  47.4973833  52.7176493
  44.6328553  47.7833833  52.3916493  43.3288553  47.5493833  52.0396493
  43.9068553  47.5473833  52.5686493  47.7848553  50.0473833  51.2216493
  48.1308553  50.3173833  51.9756493  48.0788553  50.6293833  50.6416493
  47.8798553  50.1733833  51.2476493  49.6478553  42.1933833  36.5606493
  50.0258553  42.8703833  36.1606493  48.8058553  42.4173833  36.5916493
  49.5788553  42.3263833  36.5056493  41.1608553  45.6393833  35.6436493
  40.3558553  45.4623833  35.3586493  41.1278553  46.4903833  35.8356493
  41.0368553  45.7383833  35.6306493  37.0908553  41.7063833  45.7936493
  37.5308553  41.6033833  45.0476493  37.6358553  41.3933833  46.3986493
  37.2358553  41.6453833  45.7726493  45.1068553  40.8083833  51.3856493
  44.4588553  41.2783833  51.7336493  45.6718553  40.7193833  52.0446493
  45.0948553  40.8643833  51.5346493  44.7948553  42.3453833  47.6836493
  45.0968553  42.7653833  48.3866493  44.8308553  41.5053833  47.9156493
  44.8448553  42.2833833  47.8216493  42.2198553  52.5123833  51.6086493
  42.6978553  51.9123833  51.1926493  41.8688553  52.0693833  52.2736493
  42.2388553  52.3583833  51.6456493  47.3428553  41.7923833  39.9356493
  47.5498553  41.5913833  40.7596493  48.0988553  42.0603833  39.5936493
  47.4848553  41.8023833  40.0066493  40.6378553  36.6913833  45.8406493
  39.8118553  36.5423833  46.0776493  40.5978553  36.7263833  44.9696493
  40.5098553  36.6743833  45.7466493  48.3648553  37.8753833  41.4096493
  47.6508553  37.4043833  41.5806493  48.2028553  38.2163833  40.6236493
  48.2358553  37.8563833  41.3186493  48.8078553  45.8193833  39.7896493
  49.2838553  45.0903833  39.7416493  47.9868553  45.5333833  39.7136493
  48.7568553  45.6693833  39.7706493  42.2788553  47.7313833  50.6286493
  41.4838553  47.6673833  50.9796493  42.3498553  48.5783833  50.4336493
  42.1718553  47.8463833  50.6516493  38.1088553  53.9383833  45.9456493
  38.1198553  53.9973833  46.8156493  37.6838553  53.1913833  45.7956493
  38.0478553  53.8363833  46.0516493  36.2668553  39.8333833  39.1006493
  36.3928553  39.5043833  38.3026493  35.4548553  39.5843833  39.2996493
  36.1658553  39.7483833  39.0126493  45.0238553  46.9863833  42.1446493
  45.0998553  47.3273833  42.9436493  45.1928553  46.1393833  42.2656493
  45.0598553  46.9113833  42.2806493  42.5458553  46.2603833  41.7096493
  42.2478553  45.9453833  42.4666493  43.2408553  46.7333833  41.9446493
  42.6048553  46.2833833  41.8566493  42.7678553  50.3783833  49.7366493
  43.4548553  50.2643833  50.2616493  42.9018553  51.1693833  49.3926493
  42.8888553  50.4783833  49.7636493  50.9438553  42.9873833  51.5476493
  50.0888553  42.8653833  51.6736493  51.0968553  42.5923833  50.7846493
  50.8398553  42.9103833  51.4536493  45.4568553  43.6523833  50.1236493
  45.2018553  42.9333833  50.5456493  46.2778553  43.7683833  50.3936493
  45.5408553  43.5633833  50.2256493  34.8728553  53.4363833  51.3876493
  34.2188553  52.8673833  51.4856493  34.4978553  54.2093833  51.5386493
  34.7208553  53.4663833  51.4246493  46.4748553  53.2163833  44.2396493
  46.0238553  53.8593833  44.6186493  47.1828553  53.1373833  44.7446493
  46.5128553  53.2993833  44.3706493  43.1758553  48.3063833  47.1696493
  42.4818553  48.7083833  47.5126493  43.8528553  48.7393833  47.5086493
  43.1728553  48.4293833  47.2706493  48.5528553  50.8993833  53.7496493
  49.3288553  50.5093833  53.8326493  48.0838553  50.5633833  54.4046493
  48.5978553  50.7923833  53.8586493  36.2438553  41.8443833  49.5166493
  36.6188553  42.4633833  49.0296493  36.9178553  41.3703833  49.8016493
  36.3988553  41.8663833  49.4866493  49.5778553  42.9323833  39.2316493
  49.6808553  42.8743833  38.3676493  50.3188553  42.6003833  39.5496493
  49.7028553  42.8753833  39.1506493  43.4978553  49.8973833  40.3386493
  43.2928553  50.7303833  40.1796493  42.7228553  49.5153833  40.4606493
  43.3528553  49.9643833  40.3336493  48.6798553  43.0783833  48.5876493
  48.6778553  42.2153833  48.7116493  48.7468553  43.4023833  49.3946493
  48.6898553  42.9983833  48.7246493  33.4158553  45.5183833  49.0156493
  33.7358553  45.7373833  48.2346493  33.3158553  44.6533833  48.9606493
  33.4478553  45.4233833  48.8926493  34.8718553  41.4543833  35.6336493
  34.1998553  41.4683833  36.1896493  34.9668553  40.6063833  35.4496493
  34.7868553  41.3313833  35.6886493  44.5588553  37.8783833  52.3696493
  44.6508553  38.5903833  52.8636493  43.9218553  37.4333833  52.7666493
  44.4778553  37.9173833  52.5016493  43.5528553  38.0683833  43.2236493
  42.8528553  38.5863833  43.1676493  43.5908553  37.6883833  42.4396493
  43.4548553  38.0893833  43.0996493  38.8598553  50.1593833  36.7476493
  39.3008553  50.2393833  37.4956493  38.0548553  49.9433833  37.0056493
  38.8058553  50.1393833  36.8966493  47.1508553  38.5843833  46.0236493
  48.0058553  38.6833833  46.1686493  46.7818553  39.1373833  46.5886493
  47.2228553  38.6813833  46.1286493  38.1788553  44.8103833  50.4006493
  37.7828553  45.5843833  50.4756493  37.7728553  44.4373833  49.7246493
  38.0608553  44.8693833  50.3116493  47.4548553  43.8643833  44.5146493
  48.1208553  44.4053833  44.6746493  47.1098553  44.1753833  43.7756493
  47.5018553  43.9903833  44.4296493  47.7678553  51.9303833  40.3216493
  47.5938553  51.2763833  40.8716493  48.4808553  51.6593833  39.8986493
  47.8478553  51.7933833  40.3406493  36.1888553  49.2293833  37.3486493
  35.9448553  48.9223833  38.1286493  36.1558553  48.5263833  36.8326493
  36.1478553  49.0803833  37.3876493  39.0078553  47.4743833  36.0916493
  38.1898553  47.2063833  36.2316493  38.9798553  48.3263833  36.2766493
  38.8828553  47.5613833  36.1396493  38.6078553  37.7873833  47.8506493
  37.7438553  37.8713833  47.9306493  38.8278553  37.2733833  48.5196493
  38.5128553  37.7243833  47.9616493  50.6258553  36.4223833  49.1796493
  50.5738553  36.3783833  50.0496493  51.3128553  35.9193833  48.9896493
  50.7198553  36.3423833  49.2796493  42.7108553  38.5353833  46.2246493
  41.9738553  38.0813833  46.3376493  43.2818553  38.1333833  46.7476493
  42.6858553  38.4083833  46.3186493  45.4428553  49.3833833  48.0126493
  45.6488553  49.6843833  48.8046493  45.3818553  50.1053833  47.5276493
  45.4638553  49.5343833  48.0576493  44.9768553  53.5973833  52.2586493
  44.2238553  53.5793833  51.8176493  45.1448553  54.4493833  52.3426493
  44.8908553  53.7203833  52.2056493  40.2138553  42.8643833  51.4286493
  39.8918553  42.2883833  50.8586493  39.8548553  43.6193833  51.1826493
  40.1138553  42.8903833  51.3086493  41.0098553  36.1163833  36.0556493
  41.0878553  36.3633833  35.2226493  40.2668553  36.4933833  36.3136493
  40.9118553  36.2083833  35.9706493  50.2548553  48.0223833  47.4706493
  50.2228553  47.1603833  47.3356493  49.5618553  48.3243833  47.0366493
  50.1478553  47.9393833  47.3866493  38.6488553  53.2203833  51.6766493
  38.6898553  53.3463833  52.5396493  39.2998553  52.6603833  51.5206493
  38.7508553  53.1563833  51.7816493  48.3598553  51.2823833  46.2676493
  48.8868553  51.1993833  45.5766493  47.9688553  50.5043833  46.3216493
  48.3798553  51.1553833  46.1736493  44.8738553  36.7263833  45.4756493
  45.5438553  37.2703833  45.6026493  44.3708553  37.1503833  44.9026493
  44.8988553  36.8693833  45.4096493  36.2418553  51.6033833  53.0366493
  36.8368553  52.0343833  53.5086493  35.8778553  52.2273833  52.5476493
  36.2758553  51.7593833  53.0336493  44.2328553  42.5343833  42.9686493
  44.7838553  41.9273833  43.2686493  43.8078553  42.7973833  43.6836493
  44.2518553  42.4833833  43.1176493  34.4808553  41.1843833  42.4546493
  34.1128553  41.4863833  43.1856493  35.0148553  40.5553833  42.7386493
  34.5048553  41.1363833  42.6046493  34.1688553  49.5923833  49.9656493
  33.5948553  50.0083833  50.4746493  34.9018553  50.0573833  50.0606493
  34.1928553  49.7223833  50.0546493  46.2028553  44.3653833  39.5306493
  46.2708553  43.5153833  39.7116493  45.3798553  44.4513833  39.2526493
  46.0908553  44.2523833  39.5166493  35.9548553  52.8593833  38.7406493
  35.8098553  53.0153833  37.8946493  36.8208553  52.9383833  38.8186493
  36.0618553  52.8943833  38.6276493  40.1218553  45.2563833  38.4686493
  40.2218553  45.3953833  37.6136493  40.9398553  45.1963833  38.7646493
  40.2568553  45.2673833  38.3856493  49.2818553  53.3203833  35.9486493
  49.9188553  53.1863833  36.5296493  48.9408553  52.5263833  35.8316493
  49.3258553  53.1833833  36.0166493  49.4768553  45.7383833  52.6816493
  50.1108553  45.5683833  53.2556493  49.8938553  46.1413833  52.0296493
  49.6318553  45.7733833  52.6706493  45.3568553  49.5853833  38.2706493
  45.1058553  49.4573833  39.0966493  45.0398553  48.8903833  37.8496493
  45.2728553  49.4643833  38.3306493  50.1018553  40.3023833  53.4196493
  49.9058553  40.9463833  53.9746493  49.3798553  39.8123833  53.4116493
  49.9668553  40.3253833  53.5006493  50.0008553  41.2433833  46.3906493
  49.1678553  41.4933833  46.3186493  49.9448553  40.4033833  46.6196493
  49.8698553  41.1563833  46.4136493  46.8878553  45.8493833  54.0366493
  47.7588553  45.8133833  54.0006493  46.6688553  46.2693833  53.3046493
  46.9848553  45.9053833  53.9236493  36.6418553  51.6743833  45.2176493
  36.5628553  50.8643833  44.9016493  36.1978553  52.1613833  44.6456493
  36.5648553  51.6263833  45.0866493  42.2428553  47.7933833  37.7006493
  42.9598553  47.4463833  37.3446493  42.2088553  48.5933833  37.3526493
  42.3438553  47.8603833  37.5966493  34.2138553  53.9183833  48.7986493
  34.7068553  53.8623833  49.5166493  34.4018553  53.1853833  48.3636493
  34.3148553  53.8013833  48.8406493  43.6518553  36.4343833  21.9394083
  43.4068553  36.9223833  21.2594083  44.5148553  36.3613833  21.8394083
  43.7428553  36.4953833  21.8244083  43.4608553  43.3503833  26.6104083
  42.9368553  43.9463833  26.9734083  43.8578553  42.9823833  27.2944083
  43.4418553  43.3843833  26.7654083  33.3298553  47.4903833  22.0664083
  32.8888553  47.6083833  22.8094083  33.0468553  46.7153833  21.7814083
  33.2228553  47.3933833  22.1344083  49.6048553  50.7913833  19.5814083
  50.3058553  50.2723833  19.5774083  49.0178553  50.3463833  19.1124083
  49.6218553  50.6483833  19.5114083  33.0728553  41.2823833  18.5734083
  32.2948553  41.4443833  18.2134083  33.1118553  40.4113833  18.5954083
  32.9638553  41.1773833  18.5234083  36.2118553  46.5453833  17.2454083
  35.8198553  46.1743833  16.5594083  36.1318553  45.9473833  17.8744083
  36.1418553  46.4023833  17.2364083  46.1318553  44.4173833  23.2864083
  46.2118553  44.4213833  22.4174083  45.5478553  43.7853833  23.4354083
  46.0568553  44.3243833  23.1804083  35.8388553  48.1863833  21.1454083
  36.4468553  48.0163833  21.7484083  35.0878553  48.0463833  21.5664083
  35.8178553  48.1403833  21.2964083  40.1208553  37.5213833  21.0944083
  40.0508553  38.1983833  20.5484083  40.8618553  37.1333833  20.8454083
  40.2198553  37.5643833  20.9764083  34.7298553  51.2773833  17.2224083
  35.1968553  51.3613833  16.4904083  35.1848553  50.6993833  17.6914083
  34.8658553  51.2043833  17.1834083  33.2698553  50.2253833  28.3214083
  33.3988553  49.9453833  29.1374083  32.6598553  49.6843833  28.0124083
  33.1988553  50.1043833  28.3964083  39.8438553  47.7503833  33.3884083
  39.6078553  47.7473833  34.2284083  39.0958553  47.6023833  32.9644083
  39.6978553  47.7273833  33.4494083  34.7158553  44.7463833  22.5234083
  34.2538553  44.3543833  21.8964083  35.4158553  44.2333833  22.6154083
  34.7508553  44.6133833  22.4444083  39.2238553  40.3563833  27.8704083
  39.9018553  40.3743833  27.3214083  39.1788553  39.5203833  28.1154083
  39.3168553  40.2353833  27.8254083  39.8258553  50.9423833  30.6514083
  39.9638553  51.7023833  30.2444083  40.6168553  50.5773833  30.6784083
  39.9628553  51.0013833  30.5954083  36.7168553  42.8463833  22.5464083
  37.5338553  42.6593833  22.7894083  36.2398553  42.2323833  22.9424083
  36.7668553  42.7283833  22.6414083  40.9208553  48.8273833  25.1564083
  41.2688553  48.0283833  25.1864083  41.5858553  49.3313833  24.9014083
  41.0708553  48.7833833  25.1234083  40.9778553  48.2763833  21.3674083
  41.3088553  47.6323833  21.8534083  41.2178553  48.0653833  20.5564083
  41.0618553  48.1503833  21.3194083  42.9458553  42.4073833  32.7064083
  42.0978553  42.3083833  32.5284083  42.9748553  43.1523833  33.1604083
  42.8248553  42.5033833  32.7474083  37.3138553  37.9403833  21.8124083
  37.0178553  38.4413833  21.1624083  38.1808553  38.0183833  21.7554083
  37.3978553  38.0263833  21.7084083  47.5038553  35.3673833  31.8204083
  47.3458553  36.1363833  31.4384083  46.7318553  35.1473833  32.1644083
  47.3658553  35.4483833  31.8154083  40.2928553  37.0823833  24.0354083
  40.3658553  37.9423833  24.1644083  40.2548553  37.0073833  23.1674083
  40.2978553  37.1983833  23.9264083  44.9658553  40.0083833  16.3344083
  44.5158553  40.6893833  16.6414083  45.0798553  39.5043833  17.0374083
  44.9168553  40.0343833  16.4834083  33.1718553  42.5073833  25.5364083
  32.9158553  43.3383833  25.4614083  32.5078553  42.1243833  25.9534083
  33.0358553  42.5733833  25.5874083  33.0818553  52.2173833  23.4364083
  32.4898553  52.7753833  23.1234083  33.5078553  51.9483833  22.7244083
  33.0578553  52.2593833  23.2854083  38.9218553  50.0613833  20.9164083
  38.3428553  49.7863833  21.5084083  39.5458553  49.4523833  20.9414083
  38.9288553  49.9313833  21.0074083  45.0648553  52.3493833  18.4384083
  45.7918553  52.8213833  18.5404083  45.2938553  51.5553833  18.7184083
  45.2068553  52.3023833  18.4954083  43.2328553  52.7413833  20.4284083
  43.4468553  53.2683833  21.0904083  43.9998553  52.5673833  20.0494083
  43.3778553  52.7933833  20.4704083  36.2008553  37.3243833  26.0274083
  35.6798553  36.6963833  25.7194083  36.7918553  36.8873833  26.4984083
  36.2118553  37.1663833  26.0514083  39.5068553  39.4573833  35.3254083
  39.6238553  39.0033833  34.5894083  39.7948553  40.2553833  35.1224083
  39.5668553  39.5083833  35.1864083  34.6268553  50.8873833  21.3674083
  35.2828553  50.3123833  21.3824083  35.0158553  51.6363833  21.1464083
  34.7818553  50.9123833  21.3374083  50.3598553  39.9813833  22.6294083
  50.0138553  40.6593833  23.0554083  49.7238553  39.3833833  22.6454083
  50.2148553  39.9933833  22.6944083  45.6718553  52.7513833  28.7334083
  46.4158553  53.2073833  28.7234083  45.5508553  52.5373833  27.8964083
  45.7638553  52.7873833  28.6084083  35.2398553  39.0543833  34.3094083
  34.4618553  38.6643833  34.2374083  35.7308553  38.6423833  33.7184083
  35.1968553  38.9353833  34.2114083  35.4448553  49.3743833  24.8674083
  35.8678553  49.0183833  24.1934083  35.7688553  48.9523833  25.5594083
  35.5548553  49.2593833  24.8704083  38.6758553  52.2263833  24.1634083
  39.5198553  52.3303833  23.9684083  38.3788553  53.0443833  24.2314083
  38.7568553  52.3623833  24.1444083  41.8888553  36.6973833  33.4774083
  42.0668553  35.8883833  33.2024083  41.7458553  37.1383833  32.7384083
  41.8938553  36.6433833  33.3274083  42.4828553  41.6233833  22.2504083
  42.7698553  41.3913833  21.4604083  43.2148553  41.7023833  22.7194083
  42.6328553  41.6003833  22.2034083  43.2048553  41.9623833  17.3714083
  43.4858553  42.7503833  17.6204083  42.4288553  42.1273833  17.0084083
  43.1318553  42.1033833  17.3544083  47.2458553  53.9363833  18.8384083
  47.9108553  53.7883833  18.2934083  47.6058553  53.8533833  19.6284083
  47.3978553  53.9023833  18.8744083  37.6738553  53.4453833  29.9034083
  37.9658553  53.3783833  30.7234083  37.0478553  52.8403833  29.8584083
  37.6248553  53.3463833  30.0184083  50.0348553  38.3043833  27.9984083
  50.7918553  38.3763833  27.5704083  50.0978553  37.5313833  28.3974083
  50.1558553  38.2013833  27.9934083  32.5878553  39.6023833  31.8954083
  32.5838553  40.1893833  32.5414083  33.1818553  39.9143833  31.3384083
  32.6748553  39.7353833  31.9084083  44.9258553  49.9363833  32.4374083
  44.8918553  50.3183833  33.2214083  45.7798553  49.8943833  32.2664083
  45.0468553  49.9863833  32.5284083  42.0638553  50.1333833  17.1874083
  41.8828553  50.6783833  17.8444083  42.8298553  50.4233833  16.8864083
  42.1498553  50.2573833  17.2404083  45.5708553  38.0293833  18.2414083
  46.1108553  37.3473833  18.3174083  45.6328553  38.4273833  19.0154083
  45.6598553  37.9873833  18.3674083  33.5248553  39.1973833  20.8104083
  33.4108553  38.3333833  20.8414083  33.0498553  39.4913833  21.4804083
  33.4378553  39.1133833  20.9134083  35.6668553  51.6073833  29.0254083
  34.9688553  51.0993833  29.1514083  35.9268553  51.4023833  28.2174083
  35.6018553  51.5023833  28.9244083  42.8288553  40.4053833  19.5554083
  42.3208553  39.7433833  19.3014083  42.8808553  40.9093833  18.8454083
  42.7618553  40.3823833  19.4134083  43.3778553  53.1003833  29.9354083
  44.1458553  53.0203833  29.5294083  42.7948553  52.9793833  29.2974083
  43.4048553  53.0703833  29.7814083  42.8288553  37.3463833  19.4464083
  42.3738553  36.9443833  18.8204083  43.6018553  37.5013833  19.0714083
  42.8758553  37.3103833  19.2984083  49.6548553  53.7033833  22.8364083
  49.1998553  54.4203833  23.0374083  49.0408553  53.1323833  22.5944083
  49.4968553  53.7253833  22.8304083  41.4268553  39.7133833  23.9684083
  41.5008553  40.2813833  23.3104083  41.5478553  40.2053833  24.6784083
  41.4548553  39.8703833  23.9764083  46.6518553  49.5483833  22.3804083
  47.3528553  49.0663833  22.5694083  45.9918553  48.9793833  22.4254083
  46.6578553  49.3933833  22.4144083  37.0278553  50.4583833  31.5924083
  37.8688553  50.5213833  31.3704083  36.9908553  50.8553833  32.3684083
  37.1468553  50.5263833  31.6744083  36.0348553  35.5363833  22.3164083
  36.5708553  36.2243833  22.3064083  36.0378553  35.2623833  21.4884083
  36.1138553  35.5973833  22.1924083  38.9908553  45.9693833  26.3414083
  39.1628553  45.7593833  27.1704083  38.3358553  45.4353833  26.1254083
  38.9198553  45.8593833  26.4324083  45.2188553  39.8833833  29.8564083
  45.1238553  40.2023833  30.6624083  44.6258553  39.2443833  29.8184083
  45.1168553  39.8353833  29.9704083  39.7408553  45.9073833  28.9314083
  39.7938553  46.7543833  29.1334083  39.4558553  45.5373833  29.6684083
  39.7068553  45.9773833  29.0694083  45.9178553  46.6023833  28.0614083
  45.4038553  46.1903833  28.6324083  45.7918553  47.4463833  28.2424083
  45.8238553  46.6663833  28.1724083  46.4748553  35.8273833  22.6924083
  46.5238553  35.5093833  23.5034083  46.7978553  35.1833833  22.1994083
  46.5298553  35.6853833  22.7394083  32.5618553  50.2783833  35.1424083
  33.3178553  50.6273833  35.4004083  32.7388553  49.4253833  35.0854083
  32.6998553  50.2033833  35.1724083  48.9388553  40.0633833  31.0004083
  49.7108553  39.8383833  31.3374083  48.4638553  40.2803833  31.7004083
  48.9828553  40.0623833  31.1534083  36.4828553  39.3463833  23.9704083
  36.7548553  38.9163833  23.2624083  36.3068553  38.7103833  24.5414083
  36.4968553  39.1893833  23.9504083  49.1708553  47.0413833  18.1884083
  49.2898553  46.7543833  19.0034083  49.9778553  47.0623833  17.8584083
  49.3068553  47.0023833  18.2604083  36.3068553  46.7733833  23.5194083
  37.1578553  46.6933833  23.3464083  35.9498553  46.0913833  23.1074083
  36.3798553  46.6603833  23.4324083  35.0738553  53.4983833  24.7564083
  34.4008553  53.0003833  24.5114083  35.4768553  53.6833833  24.0054083
  35.0338553  53.4523833  24.6094083  51.4048553  51.5503833  32.4424083
  50.7228553  51.8603833  31.9954083  51.0358553  51.0923833  33.0874083
  51.2488553  51.5283833  32.4714083  47.0658553  43.5783833  17.7734083
  46.8458553  44.3093833  17.3514083  46.6178553  43.6293833  18.5204083
  46.9668553  43.6933833  17.8214083  38.6748553  46.7803833  21.7544083
  39.3878553  47.2753833  21.8444083  38.8968553  46.2133833  21.1284083
  38.8128553  46.7693833  21.6754083  51.2528553  38.4393833  17.2264083
  50.5908553  37.8713833  17.2494083  51.0598553  38.9513833  16.5464083
  51.1268553  38.4313833  17.1294083  32.8308553  48.4233833  25.0744083
  32.1638553  48.9113833  25.3504083  33.5108553  48.9683833  25.1034083
  32.8328553  48.5753833  25.1194083  40.4778553  42.1333833  35.1704083
  39.9938553  42.7103833  35.6124083  40.4498553  42.4283833  34.3494083
  40.4018553  42.2623833  35.1144083  51.5758553  42.8173833  29.7824083
  51.7908553  42.0173833  29.5064083  50.7258553  42.8773833  29.5934083
  51.4818553  42.7083833  29.7134083  32.8968553  45.1073833  20.1774083
  32.7118553  44.2683833  20.3294083  33.5558553  45.0713833  19.6074083
  32.9668553  44.9783833  20.1154083  49.2548553  37.9973833  19.5054083
  50.0008553  37.5903833  19.7044083  49.5178553  38.7123833  19.0804083
  49.4038553  38.0433833  19.4724083  43.1978553  50.4833833  24.0814083
  42.6748553  51.1173833  23.7884083  43.5078553  50.1193833  23.3524083
  43.1658553  50.5233833  23.9304083  33.0688553  49.2713833  19.7524083
  33.6208553  49.8403833  20.1164083  32.8368553  48.7563833  20.4174083
  33.1158553  49.2793833  19.9044083  37.2728553  48.2713833  26.8414083
  37.7398553  48.5603833  27.5194083  37.8448553  47.7933833  26.3874083
  37.4268553  48.2433833  26.8744083  45.7088553  40.2853833  24.5784083
  46.0528553  40.4373833  25.3654083  45.2558553  39.5473833  24.6914083
  45.6928553  40.1983833  24.7114083  32.8988553  47.7203833  17.3804083
  33.6548553  47.2883833  17.4384083  32.9138553  48.2523833  18.0714083
  33.0128553  47.7353833  17.4914083  33.8388553  45.9413833  25.3854083
  34.2698553  45.8123833  24.6384083  33.6338553  46.7893833  25.3594083
  33.8718553  46.0473833  25.2714083  40.1848553  39.5053833  19.0354083
  40.1828553  39.3883833  18.1704083  40.0038553  40.3533833  19.1274083
  40.1578553  39.6133833  18.9214083  49.2388553  51.9323833  30.5324083
  48.5678553  52.4463833  30.7504083  49.3018553  52.0323833  29.6684083
  49.1488553  52.0233833  30.4374083  37.9228553  49.4573833  23.6674083
  38.0488553  50.3003833  23.8544083  38.5908553  49.0583833  24.0634083
  38.0408553  49.5233833  23.7534083  36.0528553  42.9403833  33.5294083
  35.5168553  42.4343833  33.9974083  36.0728553  42.5503833  32.7494083
  35.9758553  42.8073833  33.4834083  36.5378553  42.3373833  18.6694083
  36.4098553  41.8893833  19.4074083  35.9558553  41.9953833  18.1174083
  36.4328553  42.2203833  18.6974083  36.7048553  44.1673833  25.2684083
  35.9238553  44.1083833  24.8854083  36.7768553  43.4153833  25.7054083
  36.5998553  44.0483833  25.2764083  37.1348553  43.9043833  28.7364083
  37.1598553  43.2293833  28.1854083  36.4888553  44.4003833  28.4244083
  37.0438553  43.8773833  28.6094083  47.0298553  41.6173833  27.1324083
  46.3678553  41.9453833  27.5954083  47.2168553  42.2513833  26.5634083
  46.9598553  41.7593833  27.1164083  41.2348553  52.6813833  28.1284083
  40.9578553  52.0403833  27.6054083  41.0268553  53.4073833  27.6904083
  41.1638553  52.6943833  27.9864083  43.6748553  37.5233833  30.5614083
  43.8238553  36.6983833  30.3184083  44.0538553  37.5783833  31.3454083
  43.7528553  37.4093833  30.6414083  45.2228553  39.5863833  20.6434083
  45.7128553  40.3033833  20.5664083  44.4328553  39.8473833  20.3804083
  45.1788553  39.7303833  20.5934083  34.9338553  45.2593833  34.2954083
  34.8968553  45.7603833  33.5814083  35.2648553  44.5073833  34.0004083
  34.9768553  45.2213833  34.1464083  46.5368553  47.4643833  32.5534083
  47.0208553  48.1823833  32.6514083  46.9308553  47.0373833  31.9024083
  46.6668553  47.5073833  32.4714083  40.8328553  50.3093833  33.7304083
  41.1868553  50.1313833  34.5074083  40.3968553  49.5803833  33.5314083
  40.8208553  50.1753833  33.8164083  41.8048553  41.0563833  26.3684083
  42.2848553  41.7553833  26.5764083  42.1778553  40.4093833  26.8194083
  41.9308553  41.0643833  26.4654083  43.9938553  44.2253833  18.6424083
  43.9858553  44.9473833  18.1524083  43.3548553  44.3603833  19.2194083
  43.8988553  44.3523833  18.6554083  48.9658553  48.0953833  22.6234083
  49.3218553  47.7453833  23.3384083  48.9578553  47.4343833  22.0534083
  49.0178553  47.9453833  22.6444083  45.0108553  51.1613833  26.4674083
  44.4078553  50.8653833  25.9104083  45.5558553  51.6133833  25.9584083
  45.0018553  51.1843833  26.3094083  45.0238553  48.0123833  25.8674083
  44.2268553  48.2363833  26.1414083  45.2818553  47.4183833  26.4524083
  44.9438553  47.9573833  25.9944083  38.9158553  52.8243833  20.3154083
  38.7688553  52.0483833  20.6864083  39.6048553  52.6773833  19.8004083
  38.9958553  52.6873833  20.2944083  38.5868553  36.5673833  18.3034083
  38.6838553  36.4603833  19.1644083  37.8788553  37.0733833  18.2384083
  38.4968553  36.6263833  18.4214083  41.2078553  52.3403833  18.7174083
  41.8298553  52.5033833  19.3074083  41.2438553  53.0313833  18.1854083
  41.3048553  52.4663833  18.7264083  48.2838553  46.0103833  30.7134083
  48.3388553  46.1353833  29.8514083  49.0368553  46.3303833  31.0154083
  48.4028553  46.0753833  30.6304083  44.4748553  51.3593833  34.9904083
  44.6388553  51.6423833  35.7994083  44.7378553  52.0203833  34.4854083
  44.5378553  51.4993833  35.0354083  49.3158553  36.3083833  33.7004083
  48.6788553  35.9083833  33.2584083  49.3418553  35.8773833  34.4584083
  49.2258553  36.1863833  33.7464083  35.7088553  44.8743833  19.5464083
  36.0328553  44.0953833  19.3244083  36.3548553  45.2423833  20.0014083
  35.8518553  44.8133833  19.5804083  44.0148553  45.8163833  30.3134083
  43.8598553  46.4263833  30.9174083  44.5488553  45.2583833  30.7194083
  44.0708553  45.8243833  30.4624083  32.7058553  36.5353833  20.5144083
  32.8348553  35.8273833  20.0224083  32.3388553  36.2173833  21.2394083
  32.6708553  36.3833833  20.5494083  42.3988553  44.2163833  20.9714083
  42.4578553  44.8663833  21.5504083  42.2098553  43.5203833  21.4624083
  42.3798553  44.2093833  21.1294083  47.6248553  48.5453833  26.8404083
  47.1458553  48.8433833  26.1744083  47.2688553  47.7693833  27.0184083
  47.5018553  48.4743833  26.7684083  36.8948553  38.7333833  17.4834083
  36.3838553  38.7863833  16.7774083  37.6788553  38.9733833  17.1874083
  36.9348553  38.7763833  17.3354083  41.6218553  46.2633833  25.4024083
  40.7748553  46.0693833  25.4834083  41.9458553  46.0983833  26.1954083
  41.5438553  46.2103833  25.5314083  38.3738553  52.9933833  16.2884083
  38.8128553  52.2963833  16.5764083  38.5808553  53.6173833  16.8614083
  38.4698553  52.9823833  16.4154083  35.4698553  45.9563833  27.7184083
  36.1918553  46.4443833  27.6814083  35.1998553  45.9263833  26.8894083
  35.5368553  46.0243833  27.5904083  38.6998553  41.1273833  24.4534083
  39.5458553  40.9373833  24.5514083  38.3298553  40.3503833  24.3154083
  38.7698553  40.9843833  24.4474083  51.3168553  52.7113833  18.7804083
  52.0108553  52.2443833  18.5324083  50.7778553  52.1133833  19.1174083
  51.3398553  52.5533833  18.7934083  33.5208553  42.4653833  21.1084083
  34.0098553  42.1733833  21.7694083  33.6498553  41.8723833  20.4814083
  33.6118553  42.3343833  21.1134083  48.5558553  45.4873833  27.9594083
  48.5488553  44.7113833  28.3574083  47.7148553  45.7213833  27.9524083
  48.4308553  45.4073833  28.0174083  38.0458553  43.8993833  16.5944083
  37.4358553  43.4943833  17.0684083  37.6598553  44.0173833  15.8214083
  37.8988553  43.8563833  16.5504083  34.8648553  47.0083833  31.9964083
  34.4438553  46.4903833  31.4354083  34.5128553  47.7943833  31.8534083
  34.7508553  47.0483833  31.8924083  49.8118553  45.5583833  25.3964083
  49.5258553  45.9593833  26.1164083  50.6718553  45.4963833  25.5234083
  49.8968553  45.6083833  25.5214083  39.5008553  42.3603833  19.3044083
  39.7728553  43.1863833  19.3714083  38.6378553  42.4353833  19.2084083
  39.4138553  42.4933833  19.2994083  47.4738553  39.4823833  33.9364083
  46.9488553  39.9413833  34.4604083  47.1128553  38.6873833  33.9304083
  47.3428553  39.4323833  34.0124083  32.9808553  38.3303833  25.8404083
  33.0248553  38.6743833  25.0394083  33.7358553  38.5673833  26.2074083
  33.0988553  38.4163833  25.7764083  50.9428553  51.1913833  25.9254083
  51.2328553  51.4483833  25.1444083  51.6378553  51.2873833  26.4444083
  51.0888553  51.2433833  25.8864083  45.9658553  43.0513833  34.0124083
  46.0388553  43.1553833  34.8754083  45.3318553  43.6093833  33.7914083
  45.8828553  43.1493833  34.1074083  48.2338553  43.3703833  32.3774083
  48.5528553  44.1563833  32.5804083  47.8638553  43.1003833  33.1204083
  48.2268553  43.4463833  32.5174083  47.5478553  49.7943833  17.9074083
  47.8818553  48.9883833  17.9424083  46.7928553  49.7223833  18.3374083
  47.4858553  49.6643833  17.9764083  48.0298553  41.6283833  23.5664083
  47.2848553  41.3053833  23.8844083  48.0318553  42.4543833  23.8464083
  47.9198553  41.7023833  23.6544083  50.9318553  43.9123833  35.1124083
  50.8798553  43.5713833  34.3114083  51.6688553  44.3793833  35.0904083
  51.0328553  43.9313833  34.9904083  50.4698553  47.5883833  31.3184083
  51.0978553  47.0393833  31.0624083  50.4088553  48.1533833  30.6564083
  50.5538553  47.5913833  31.1824083  44.9218553  47.6693833  17.3104083
  45.6058553  47.1553833  17.1414083  44.5048553  47.7153833  16.5454083
  44.9608553  47.6003833  17.1724083  39.6038553  48.8193833  28.6144083
  39.3058553  49.4113833  29.1814083  39.6588553  49.2613833  27.8654083
  39.5678553  48.9723833  28.5874083  37.5828553  47.7693833  32.0124083
  36.7768553  47.4793833  32.1794083  37.4938553  48.6373833  32.0184083
  37.4508553  47.8543833  32.0374083  46.9418553  37.9583833  31.0274083
  47.6858553  38.4103833  30.9644083  46.3758553  38.4283833  30.5584083
  46.9688553  38.0953833  30.9494083  42.1198553  45.2423833  28.1054083
  42.5958553  45.6163833  28.7334083  41.2968553  45.3763833  28.3644083
  42.0688553  45.3173833  28.2364083  38.8298553  40.8453833  30.8464083
  38.9908553  40.1013833  31.2734083  38.7848553  40.5963833  30.0114083
  38.8468553  40.6983833  30.7864083  41.3838553  52.6353833  23.3334083
  41.9298553  53.3143833  23.3874083  41.0338553  52.7173833  22.5384083
  41.4128553  52.7483833  23.2234083  48.2268553  35.9383833  28.6974083
  47.9468553  36.7633833  28.6534083  48.9428553  35.9913833  29.1934083
  48.2918553  36.0683833  28.7644083  40.5818553  36.6533833  30.7264083
  41.2868553  36.9733833  30.3244083  40.8228553  35.8463833  30.9534083
  40.7208553  36.5813833  30.7004083  39.5668553  50.8633833  26.7224083
  38.9428553  51.4453833  26.5404083  39.8148553  50.5773833  25.9364083
  39.5108553  50.9073833  26.5794083  43.8758553  47.4973833  33.7114083
  44.6328553  47.7833833  33.3854083  43.3288553  47.5493833  33.0334083
  43.9068553  47.5473833  33.5624083  47.7848553  50.0473833  32.2154083
  48.1308553  50.3173833  32.9694083  48.0788553  50.6293833  31.6354083
  47.8798553  50.1733833  32.2414083  49.6478553  42.1933833  17.5544083
  50.0258553  42.8703833  17.1544083  48.8058553  42.4173833  17.5854083
  49.5788553  42.3263833  17.4994083  41.1608553  45.6393833  16.6374083
  40.3558553  45.4623833  16.3524083  41.1278553  46.4903833  16.8294083
  41.0368553  45.7383833  16.6244083  37.0908553  41.7063833  26.7874083
  37.5308553  41.6033833  26.0414083  37.6358553  41.3933833  27.3924083
  37.2358553  41.6453833  26.7664083  45.1068553  40.8083833  32.3794083
  44.4588553  41.2783833  32.7274083  45.6718553  40.7193833  33.0384083
  45.0948553  40.8643833  32.5284083  44.7948553  42.3453833  28.6774083
  45.0968553  42.7653833  29.3804083  44.8308553  41.5053833  28.9094083
  44.8448553  42.2833833  28.8154083  42.2198553  52.5123833  32.6024083
  42.6978553  51.9123833  32.1864083  41.8688553  52.0693833  33.2674083
  42.2388553  52.3583833  32.6394083  47.3428553  41.7923833  20.9294083
  47.5498553  41.5913833  21.7534083  48.0988553  42.0603833  20.5874083
  47.4848553  41.8023833  21.0004083  40.6378553  36.6913833  26.8344083
  39.8118553  36.5423833  27.0714083  40.5978553  36.7263833  25.9634083
  40.5098553  36.6743833  26.7404083  48.3648553  37.8753833  22.4034083
  47.6508553  37.4043833  22.5744083  48.2028553  38.2163833  21.6174083
  48.2358553  37.8563833  22.3124083  48.8078553  45.8193833  20.7834083
  49.2838553  45.0903833  20.7354083  47.9868553  45.5333833  20.7074083
  48.7568553  45.6693833  20.7644083  42.2788553  47.7313833  31.6224083
  41.4838553  47.6673833  31.9734083  42.3498553  48.5783833  31.4274083
  42.1718553  47.8463833  31.6454083  33.2028553  37.0893833  32.8694083
  33.0628553  37.8843833  32.5384083  32.4168553  36.8463833  33.1584083
  33.0658553  37.1713833  32.8634083  38.1088553  53.9383833  26.9394083
  38.1198553  53.9973833  27.8094083  37.6838553  53.1913833  26.7894083
  38.0478553  53.8363833  27.0454083  36.2668553  39.8333833  20.0944083
  36.3928553  39.5043833  19.2964083  35.4548553  39.5843833  20.2934083
  36.1658553  39.7483833  20.0064083  45.0238553  46.9863833  23.1384083
  45.0998553  47.3273833  23.9374083  45.1928553  46.1393833  23.2594083
  45.0598553  46.9113833  23.2744083  42.5458553  46.2603833  22.7034083
  42.2478553  45.9453833  23.4604083  43.2408553  46.7333833  22.9384083
  42.6048553  46.2833833  22.8504083  42.7678553  50.3783833  30.7304083
  43.4548553  50.2643833  31.2554083  42.9018553  51.1693833  30.3864083
  42.8888553  50.4783833  30.7574083  50.9438553  42.9873833  32.5414083
  50.0888553  42.8653833  32.6674083  51.0968553  42.5923833  31.7784083
  50.8398553  42.9103833  32.4474083  45.4568553  43.6523833  31.1174083
  45.2018553  42.9333833  31.5394083  46.2778553  43.7683833  31.3874083
  45.5408553  43.5633833  31.2194083  34.8728553  53.4363833  32.3814083
  34.2188553  52.8673833  32.4794083  34.4978553  54.2093833  32.5324083
  34.7208553  53.4663833  32.4184083  43.3908553  44.8423833  34.3044083
  43.7138553  45.5283833  33.8724083  42.6868553  45.1653833  34.7064083
  43.3338553  44.9913833  34.2994083  46.4748553  53.2163833  25.2334083
  46.0238553  53.8593833  25.6124083  47.1828553  53.1373833  25.7384083
  46.5128553  53.2993833  25.3644083  43.1758553  48.3063833  28.1634083
  42.4818553  48.7083833  28.5064083  43.8528553  48.7393833  28.5024083
  43.1728553  48.4293833  28.2644083  48.5528553  50.8993833  34.7434083
  49.3288553  50.5093833  34.8264083  48.0838553  50.5633833  35.3984083
  48.5978553  50.7923833  34.8524083  36.2438553  41.8443833  30.5104083
  36.6188553  42.4633833  30.0234083  36.9178553  41.3703833  30.7954083
  36.3988553  41.8663833  30.4804083  34.0188553  40.2923833  29.7854083
  34.0958553  40.1233833  28.9324083  34.7648553  40.6983833  29.9824083
  34.1398553  40.3273833  29.6884083  49.5778553  42.9323833  20.2254083
  49.6808553  42.8743833  19.3614083  50.3188553  42.6003833  20.5434083
  49.7028553  42.8753833  20.1444083  36.5728553  37.7023833  32.1964083
  36.4918553  36.8583833  32.4024083  36.2588553  37.7463833  31.3834083
  36.5148553  37.5843833  32.1064083  43.4978553  49.8973833  21.3324083
  43.2928553  50.7303833  21.1734083  42.7228553  49.5153833  21.4544083
  43.3528553  49.9643833  21.3274083  48.6798553  43.0783833  29.5814083
  48.6778553  42.2153833  29.7054083  48.7468553  43.4023833  30.3884083
  48.6898553  42.9983833  29.7184083  33.4158553  45.5183833  30.0094083
  33.7358553  45.7373833  29.2284083  33.3158553  44.6533833  29.9544083
  33.4478553  45.4233833  29.8864083  34.8718553  41.4543833  16.6274083
  34.1998553  41.4683833  17.1834083  34.9668553  40.6063833  16.4434083
  34.7868553  41.3313833  16.6824083  44.5588553  37.8783833  33.3634083
  44.6508553  38.5903833  33.8574083  43.9218553  37.4333833  33.7604083
  44.4778553  37.9173833  33.4954083  43.5528553  38.0683833  24.2174083
  42.8528553  38.5863833  24.1614083  43.5908553  37.6883833  23.4334083
  43.4548553  38.0893833  24.0934083  38.8598553  50.1593833  17.7414083
  39.3008553  50.2393833  18.4894083  38.0548553  49.9433833  17.9994083
  38.8058553  50.1393833  17.8904083  47.1508553  38.5843833  27.0174083
  48.0058553  38.6833833  27.1624083  46.7818553  39.1373833  27.5824083
  47.2228553  38.6813833  27.1224083  38.1788553  44.8103833  31.3944083
  37.7828553  45.5843833  31.4694083  37.7728553  44.4373833  30.7184083
  38.0608553  44.8693833  31.3054083  47.4548553  43.8643833  25.5084083
  48.1208553  44.4053833  25.6684083  47.1098553  44.1753833  24.7694083
  47.5018553  43.9903833  25.4234083  47.7678553  51.9303833  21.3154083
  47.5938553  51.2763833  21.8654083  48.4808553  51.6593833  20.8924083
  47.8478553  51.7933833  21.3344083  36.1888553  49.2293833  18.3424083
  35.9448553  48.9223833  19.1224083  36.1558553  48.5263833  17.8264083
  36.1478553  49.0803833  18.3814083  39.0078553  47.4743833  17.0854083
  38.1898553  47.2063833  17.2254083  38.9798553  48.3263833  17.2704083
  38.8828553  47.5613833  17.1334083  38.6078553  37.7873833  28.8444083
  37.7438553  37.8713833  28.9244083  38.8278553  37.2733833  29.5134083
  38.5128553  37.7243833  28.9554083  50.6258553  36.4223833  30.1734083
  50.5738553  36.3783833  31.0434083  51.3128553  35.9193833  29.9834083
  50.7198553  36.3423833  30.2734083  42.7108553  38.5353833  27.2184083
  41.9738553  38.0813833  27.3314083  43.2818553  38.1333833  27.7414083
  42.6858553  38.4083833  27.3124083  45.4428553  49.3833833  29.0064083
  45.6488553  49.6843833  29.7984083  45.3818553  50.1053833  28.5214083
  45.4638553  49.5343833  29.0514083  44.9768553  53.5973833  33.2524083
  44.2238553  53.5793833  32.8114083  45.1448553  54.4493833  33.3364083
  44.8908553  53.7203833  33.1994083  40.2138553  42.8643833  32.4224083
  39.8918553  42.2883833  31.8524083  39.8548553  43.6193833  32.1764083
  40.1138553  42.8903833  32.3024083  41.0098553  36.1163833  17.0494083
  41.0878553  36.3633833  16.2164083  40.2668553  36.4933833  17.3074083
  40.9118553  36.2083833  16.9644083  50.2548553  48.0223833  28.4644083
  50.2228553  47.1603833  28.3294083  49.5618553  48.3243833  28.0304083
  50.1478553  47.9393833  28.3804083  38.6488553  53.2203833  32.6704083
  38.6898553  53.3463833  33.5334083  39.2998553  52.6603833  32.5144083
  38.7508553  53.1563833  32.7754083  48.3598553  51.2823833  27.2614083
  48.8868553  51.1993833  26.5704083  47.9688553  50.5043833  27.3154083
  48.3798553  51.1553833  27.1674083  35.8278553  37.8703833  29.4924083
  35.4848553  37.1033833  29.2584083  35.1328553  38.3943833  29.5564083
  35.6748553  37.8343833  29.4674083  44.8738553  36.7263833  26.4694083
  45.5438553  37.2703833  26.5964083  44.3708553  37.1503833  25.8964083
  44.8988553  36.8693833  26.4034083  36.2418553  51.6033833  34.0304083
  36.8368553  52.0343833  34.5024083  35.8778553  52.2273833  33.5414083
  36.2758553  51.7593833  34.0274083  44.2328553  42.5343833  23.9624083
  44.7838553  41.9273833  24.2624083  43.8078553  42.7973833  24.6774083
  44.2518553  42.4833833  24.1114083  34.4808553  41.1843833  23.4484083
  34.1128553  41.4863833  24.1794083  35.0148553  40.5553833  23.7324083
  34.5048553  41.1363833  23.5984083  46.2028553  44.3653833  20.5244083
  46.2708553  43.5153833  20.7054083  45.3798553  44.4513833  20.2464083
  46.0908553  44.2523833  20.5104083  35.9548553  52.8593833  19.7344083
  35.8098553  53.0153833  18.8884083  36.8208553  52.9383833  19.8124083
  36.0618553  52.8943833  19.6214083  40.1218553  45.2563833  19.4624083
  40.2218553  45.3953833  18.6074083  40.9398553  45.1963833  19.7584083
  40.2568553  45.2673833  19.3794083  49.2818553  53.3203833  16.9424083
  49.9188553  53.1863833  17.5234083  48.9408553  52.5263833  16.8254083
  49.3258553  53.1833833  17.0104083  49.4768553  45.7383833  33.6754083
  50.1108553  45.5683833  34.2494083  49.8938553  46.1413833  33.0234083
  49.6318553  45.7733833  33.6644083  45.3568553  49.5853833  19.2644083
  45.1058553  49.4573833  20.0904083  45.0398553  48.8903833  18.8434083
  45.2728553  49.4643833  19.3244083  50.1018553  40.3023833  34.4134083
  49.9058553  40.9463833  34.9684083  49.3798553  39.8123833  34.4054083
  49.9668553  40.3253833  34.4944083  50.0008553  41.2433833  27.3844083
  49.1678553  41.4933833  27.3124083  49.9448553  40.4033833  27.6134083
  49.8698553  41.1563833  27.4074083  39.2608553  38.2313833  32.5784083
  39.4948553  37.6553833  31.9654083  38.4188553  38.0503833  32.7194083
  39.1708553  38.1193833  32.5084083  46.8878553  45.8493833  35.0304083
  47.7588553  45.8133833  34.9944083  46.6688553  46.2693833  34.2984083
  46.9848553  45.9053833  34.9174083  36.6418553  51.6743833  26.2114083
  36.5628553  50.8643833  25.8954083  36.1978553  52.1613833  25.6394083
  36.5648553  51.6263833  26.0804083  42.2428553  47.7933833  18.6944083
  42.9598553  47.4463833  18.3384083  42.2088553  48.5933833  18.3464083
  42.3438553  47.8603833  18.5904083  34.2138553  53.9183833  29.7924083
  34.7068553  53.8623833  30.5104083  34.4018553  53.1853833  29.3574083
  34.3148553  53.8013833  29.8344083  43.6518553  36.4343833   2.9331673
  43.4068553  36.9223833   2.2531673  44.5148553  36.3613833   2.8331673
  43.7428553  36.4953833   2.8181673  43.4608553  43.3503833   7.6041673
  42.9368553  43.9463833   7.9671673  43.8578553  42.9823833   8.2881673
  43.4418553  43.3843833   7.7591673  33.3298553  47.4903833   3.0601673
  32.8888553  47.6083833   3.8031673  33.0468553  46.7153833   2.7751673
  33.2228553  47.3933833   3.1281673  46.1318553  44.4173833   4.2801673
  46.2118553  44.4213833   3.4111673  45.5478553  43.7853833   4.4291673
  46.0568553  44.3243833   4.1741673  35.8388553  48.1863833   2.1391673
  36.4468553  48.0163833   2.7421673  35.0878553  48.0463833   2.5601673
  35.8178553  48.1403833   2.2901673  40.1208553  37.5213833   2.0881673
  40.0508553  38.1983833   1.5421673  40.8618553  37.1333833   1.8391673
  40.2198553  37.5643833   1.9701673  33.2698553  50.2253833   9.3151673
  33.3988553  49.9453833  10.1311673  32.6598553  49.6843833   9.0061673
  33.1988553  50.1043833   9.3901673  39.8438553  47.7503833  14.3821673
  39.6078553  47.7473833  15.2221673  39.0958553  47.6023833  13.9581673
  39.6978553  47.7273833  14.4431673  34.7158553  44.7463833   3.5171673
  34.2538553  44.3543833   2.8901673  35.4158553  44.2333833   3.6091673
  34.7508553  44.6133833   3.4381673  39.2238553  40.3563833   8.8641673
  39.9018553  40.3743833   8.3151673  39.1788553  39.5203833   9.1091673
  39.3168553  40.2353833   8.8191673  39.8258553  50.9423833  11.6451673
  39.9638553  51.7023833  11.2381673  40.6168553  50.5773833  11.6721673
  39.9628553  51.0013833  11.5891673  36.7168553  42.8463833   3.5401673
  37.5338553  42.6593833   3.7831673  36.2398553  42.2323833   3.9361673
  36.7668553  42.7283833   3.6351673  40.9208553  48.8273833   6.1501673
  41.2688553  48.0283833   6.1801673  41.5858553  49.3313833   5.8951673
  41.0708553  48.7833833   6.1171673  40.9778553  48.2763833   2.3611673
  41.3088553  47.6323833   2.8471673  41.2178553  48.0653833   1.5501673
  41.0618553  48.1503833   2.3131673  42.9458553  42.4073833  13.7001673
  42.0978553  42.3083833  13.5221673  42.9748553  43.1523833  14.1541673
  42.8248553  42.5033833  13.7411673  37.3138553  37.9403833   2.8061673
  37.0178553  38.4413833   2.1561673  38.1808553  38.0183833   2.7491673
  37.3978553  38.0263833   2.7021673  47.5038553  35.3673833  12.8141673
  47.3458553  36.1363833  12.4321673  46.7318553  35.1473833  13.1581673
  47.3658553  35.4483833  12.8091673  40.2928553  37.0823833   5.0291673
  40.3658553  37.9423833   5.1581673  40.2548553  37.0073833   4.1611673
  40.2978553  37.1983833   4.9201673  33.1718553  42.5073833   6.5301673
  32.9158553  43.3383833   6.4551673  32.5078553  42.1243833   6.9471673
  33.0358553  42.5733833   6.5811673  33.0818553  52.2173833   4.4301673
  32.4898553  52.7753833   4.1171673  33.5078553  51.9483833   3.7181673
  33.0578553  52.2593833   4.2791673  38.9218553  50.0613833   1.9101673
  38.3428553  49.7863833   2.5021673  39.5458553  49.4523833   1.9351673
  38.9288553  49.9313833   2.0011673  36.2008553  37.3243833   7.0211673
  35.6798553  36.6963833   6.7131673  36.7918553  36.8873833   7.4921673
  36.2118553  37.1663833   7.0451673  39.5068553  39.4573833  16.3191673
  39.6238553  39.0033833  15.5831673  39.7948553  40.2553833  16.1161673
  39.5668553  39.5083833  16.1801673  34.6268553  50.8873833   2.3611673
  35.2828553  50.3123833   2.3761673  35.0158553  51.6363833   2.1401673
  34.7818553  50.9123833   2.3311673  50.3598553  39.9813833   3.6231673
  50.0138553  40.6593833   4.0491673  49.7238553  39.3833833   3.6391673
  50.2148553  39.9933833   3.6881673  45.6718553  52.7513833   9.7271673
  46.4158553  53.2073833   9.7171673  45.5508553  52.5373833   8.8901673
  45.7638553  52.7873833   9.6021673  35.2398553  39.0543833  15.3031673
  34.4618553  38.6643833  15.2311673  35.7308553  38.6423833  14.7121673
  35.1968553  38.9353833  15.2051673  35.4448553  49.3743833   5.8611673
  35.8678553  49.0183833   5.1871673  35.7688553  48.9523833   6.5531673
  35.5548553  49.2593833   5.8641673  38.6758553  52.2263833   5.1571673
  39.5198553  52.3303833   4.9621673  38.3788553  53.0443833   5.2251673
  38.7568553  52.3623833   5.1381673  41.8888553  36.6973833  14.4711673
  42.0668553  35.8883833  14.1961673  41.7458553  37.1383833  13.7321673
  41.8938553  36.6433833  14.3211673  42.4828553  41.6233833   3.2441673
  42.7698553  41.3913833   2.4541673  43.2148553  41.7023833   3.7131673
  42.6328553  41.6003833   3.1971673  37.6738553  53.4453833  10.8971673
  37.9658553  53.3783833  11.7171673  37.0478553  52.8403833  10.8521673
  37.6248553  53.3463833  11.0121673  50.0348553  38.3043833   8.9921673
  50.7918553  38.3763833   8.5641673  50.0978553  37.5313833   9.3911673
  50.1558553  38.2013833   8.9871673  32.5878553  39.6023833  12.8891673
  32.5838553  40.1893833  13.5351673  33.1818553  39.9143833  12.3321673
  32.6748553  39.7353833  12.9021673  44.9258553  49.9363833  13.4311673
  44.8918553  50.3183833  14.2151673  45.7798553  49.8943833  13.2601673
  45.0468553  49.9863833  13.5221673  33.5248553  39.1973833   1.8041673
  33.4108553  38.3333833   1.8351673  33.0498553  39.4913833   2.4741673
  33.4378553  39.1133833   1.9071673  35.6668553  51.6073833  10.0191673
  34.9688553  51.0993833  10.1451673  35.9268553  51.4023833   9.2111673
  35.6018553  51.5023833   9.9181673  43.3778553  53.1003833  10.9291673
  44.1458553  53.0203833  10.5231673  42.7948553  52.9793833  10.2911673
  43.4048553  53.0703833  10.7751673  49.6548553  53.7033833   3.8301673
  49.1998553  54.4203833   4.0311673  49.0408553  53.1323833   3.5881673
  49.4968553  53.7253833   3.8241673  41.4268553  39.7133833   4.9621673
  41.5008553  40.2813833   4.3041673  41.5478553  40.2053833   5.6721673
  41.4548553  39.8703833   4.9701673  46.6518553  49.5483833   3.3741673
  47.3528553  49.0663833   3.5631673  45.9918553  48.9793833   3.4191673
  46.6578553  49.3933833   3.4081673  37.0278553  50.4583833  12.5861673
  37.8688553  50.5213833  12.3641673  36.9908553  50.8553833  13.3621673
  37.1468553  50.5263833  12.6681673  36.0348553  35.5363833   3.3101673
  36.5708553  36.2243833   3.3001673  36.0378553  35.2623833   2.4821673
  36.1138553  35.5973833   3.1861673  38.9908553  45.9693833   7.3351673
  39.1628553  45.7593833   8.1641673  38.3358553  45.4353833   7.1191673
  38.9198553  45.8593833   7.4261673  45.2188553  39.8833833  10.8501673
  45.1238553  40.2023833  11.6561673  44.6258553  39.2443833  10.8121673
  45.1168553  39.8353833  10.9641673  39.7408553  45.9073833   9.9251673
  39.7938553  46.7543833  10.1271673  39.4558553  45.5373833  10.6621673
  39.7068553  45.9773833  10.0631673  45.9178553  46.6023833   9.0551673
  45.4038553  46.1903833   9.6261673  45.7918553  47.4463833   9.2361673
  45.8238553  46.6663833   9.1661673  46.4748553  35.8273833   3.6861673
  46.5238553  35.5093833   4.4971673  46.7978553  35.1833833   3.1931673
  46.5298553  35.6853833   3.7331673  32.5618553  50.2783833  16.1361673
  33.3178553  50.6273833  16.3941673  32.7388553  49.4253833  16.0791673
  32.6998553  50.2033833  16.1661673  48.9388553  40.0633833  11.9941673
  49.7108553  39.8383833  12.3311673  48.4638553  40.2803833  12.6941673
  48.9828553  40.0623833  12.1471673  36.4828553  39.3463833   4.9641673
  36.7548553  38.9163833   4.2561673  36.3068553  38.7103833   5.5351673
  36.4968553  39.1893833   4.9441673  36.3068553  46.7733833   4.5131673
  37.1578553  46.6933833   4.3401673  35.9498553  46.0913833   4.1011673
  36.3798553  46.6603833   4.4261673  35.0738553  53.4983833   5.7501673
  34.4008553  53.0003833   5.5051673  35.4768553  53.6833833   4.9991673
  35.0338553  53.4523833   5.6031673  34.6238553  40.4483833   8.0461673
  35.4668553  40.6683833   8.0031673  34.2348553  41.0213833   7.5151673
  34.6908553  40.5653833   7.9611673  51.4048553  51.5503833  13.4361673
  50.7228553  51.8603833  12.9891673  51.0358553  51.0923833  14.0811673
  51.2488553  51.5283833  13.4651673  38.6748553  46.7803833   2.7481673
  39.3878553  47.2753833   2.8381673  38.8968553  46.2133833   2.1221673
  38.8128553  46.7693833   2.6691673  32.8308553  48.4233833   6.0681673
  32.1638553  48.9113833   6.3441673  33.5108553  48.9683833   6.0971673
  32.8328553  48.5753833   6.1131673  40.4778553  42.1333833  16.1641673
  39.9938553  42.7103833  16.6061673  40.4498553  42.4283833  15.3431673
  40.4018553  42.2623833  16.1081673  51.5758553  42.8173833  10.7761673
  51.7908553  42.0173833  10.5001673  50.7258553  42.8773833  10.5871673
  51.4818553  42.7083833  10.7071673  43.1978553  50.4833833   5.0751673
  42.6748553  51.1173833   4.7821673  43.5078553  50.1193833   4.3461673
  43.1658553  50.5233833   4.9241673  37.2728553  48.2713833   7.8351673
  37.7398553  48.5603833   8.5131673  37.8448553  47.7933833   7.3811673
  37.4268553  48.2433833   7.8681673  45.7088553  40.2853833   5.5721673
  46.0528553  40.4373833   6.3591673  45.2558553  39.5473833   5.6851673
  45.6928553  40.1983833   5.7051673  33.8388553  45.9413833   6.3791673
  34.2698553  45.8123833   5.6321673  33.6338553  46.7893833   6.3531673
  33.8718553  46.0473833   6.2651673  49.2388553  51.9323833  11.5261673
  48.5678553  52.4463833  11.7441673  49.3018553  52.0323833  10.6621673
  49.1488553  52.0233833  11.4311673  37.9228553  49.4573833   4.6611673
  38.0488553  50.3003833   4.8481673  38.5908553  49.0583833   5.0571673
  38.0408553  49.5233833   4.7471673  36.0528553  42.9403833  14.5231673
  35.5168553  42.4343833  14.9911673  36.0728553  42.5503833  13.7431673
  35.9758553  42.8073833  14.4771673  36.7048553  44.1673833   6.2621673
  35.9238553  44.1083833   5.8791673  36.7768553  43.4153833   6.6991673
  36.5998553  44.0483833   6.2701673  37.1348553  43.9043833   9.7301673
  37.1598553  43.2293833   9.1791673  36.4888553  44.4003833   9.4181673
  37.0438553  43.8773833   9.6031673  47.0298553  41.6173833   8.1261673
  46.3678553  41.9453833   8.5891673  47.2168553  42.2513833   7.5571673
  46.9598553  41.7593833   8.1101673  41.2348553  52.6813833   9.1221673
  40.9578553  52.0403833   8.5991673  41.0268553  53.4073833   8.6841673
  41.1638553  52.6943833   8.9801673  43.6748553  37.5233833  11.5551673
  43.8238553  36.6983833  11.3121673  44.0538553  37.5783833  12.3391673
  43.7528553  37.4093833  11.6351673  34.9338553  45.2593833  15.2891673
  34.8968553  45.7603833  14.5751673  35.2648553  44.5073833  14.9941673
  34.9768553  45.2213833  15.1401673  46.5368553  47.4643833  13.5471673
  47.0208553  48.1823833  13.6451673  46.9308553  47.0373833  12.8961673
  46.6668553  47.5073833  13.4651673  40.8328553  50.3093833  14.7241673
  41.1868553  50.1313833  15.5011673  40.3968553  49.5803833  14.5251673
  40.8208553  50.1753833  14.8101673  41.8048553  41.0563833   7.3621673
  42.2848553  41.7553833   7.5701673  42.1778553  40.4093833   7.8131673
  41.9308553  41.0643833   7.4591673  48.9658553  48.0953833   3.6171673
  49.3218553  47.7453833   4.3321673  48.9578553  47.4343833   3.0471673
  49.0178553  47.9453833   3.6381673  45.0108553  51.1613833   7.4611673
  44.4078553  50.8653833   6.9041673  45.5558553  51.6133833   6.9521673
  45.0018553  51.1843833   7.3031673  45.0238553  48.0123833   6.8611673
  44.2268553  48.2363833   7.1351673  45.2818553  47.4183833   7.4461673
  44.9438553  47.9573833   6.9881673  48.2838553  46.0103833  11.7071673
  48.3388553  46.1353833  10.8451673  49.0368553  46.3303833  12.0091673
  48.4028553  46.0753833  11.6241673  44.4748553  51.3593833  15.9841673
  44.6388553  51.6423833  16.7931673  44.7378553  52.0203833  15.4791673
  44.5378553  51.4993833  16.0291673  49.3158553  36.3083833  14.6941673
  48.6788553  35.9083833  14.2521673  49.3418553  35.8773833  15.4521673
  49.2258553  36.1863833  14.7401673  44.0148553  45.8163833  11.3071673
  43.8598553  46.4263833  11.9111673  44.5488553  45.2583833  11.7131673
  44.0708553  45.8243833  11.4561673  42.3988553  44.2163833   1.9651673
  42.4578553  44.8663833   2.5441673  42.2098553  43.5203833   2.4561673
  42.3798553  44.2093833   2.1231673  47.6248553  48.5453833   7.8341673
  47.1458553  48.8433833   7.1681673  47.2688553  47.7693833   8.0121673
  47.5018553  48.4743833   7.7621673  41.6218553  46.2633833   6.3961673
  40.7748553  46.0693833   6.4771673  41.9458553  46.0983833   7.1891673
  41.5438553  46.2103833   6.5251673  35.4698553  45.9563833   8.7121673
  36.1918553  46.4443833   8.6751673  35.1998553  45.9263833   7.8831673
  35.5368553  46.0243833   8.5841673  38.6998553  41.1273833   5.4471673
  39.5458553  40.9373833   5.5451673  38.3298553  40.3503833   5.3091673
  38.7698553  40.9843833   5.4411673  48.5558553  45.4873833   8.9531673
  48.5488553  44.7113833   9.3511673  47.7148553  45.7213833   8.9461673
  48.4308553  45.4073833   9.0111673  34.8648553  47.0083833  12.9901673
  34.4438553  46.4903833  12.4291673  34.5128553  47.7943833  12.8471673
  34.7508553  47.0483833  12.8861673  49.8118553  45.5583833   6.3901673
  49.5258553  45.9593833   7.1101673  50.6718553  45.4963833   6.5171673
  49.8968553  45.6083833   6.5151673  47.4738553  39.4823833  14.9301673
  46.9488553  39.9413833  15.4541673  47.1128553  38.6873833  14.9241673
  47.3428553  39.4323833  15.0061673  32.9808553  38.3303833   6.8341673
  33.0248553  38.6743833   6.0331673  33.7358553  38.5673833   7.2011673
  33.0988553  38.4163833   6.7701673  50.9428553  51.1913833   6.9191673
  51.2328553  51.4483833   6.1381673  51.6378553  51.2873833   7.4381673
  51.0888553  51.2433833   6.8801673  45.9658553  43.0513833  15.0061673
  46.0388553  43.1553833  15.8691673  45.3318553  43.6093833  14.7851673
  45.8828553  43.1493833  15.1011673  48.2338553  43.3703833  13.3711673
  48.5528553  44.1563833  13.5741673  47.8638553  43.1003833  14.1141673
  48.2268553  43.4463833  13.5111673  48.0298553  41.6283833   4.5601673
  47.2848553  41.3053833   4.8781673  48.0318553  42.4543833   4.8401673
  47.9198553  41.7023833   4.6481673  50.9318553  43.9123833  16.1061673
  50.8798553  43.5713833  15.3051673  51.6688553  44.3793833  16.0841673
  51.0328553  43.9313833  15.9841673  50.4698553  47.5883833  12.3121673
  51.0978553  47.0393833  12.0561673  50.4088553  48.1533833  11.6501673
  50.5538553  47.5913833  12.1761673  39.6038553  48.8193833   9.6081673
  39.3058553  49.4113833  10.1751673  39.6588553  49.2613833   8.8591673
  39.5678553  48.9723833   9.5811673  37.5828553  47.7693833  13.0061673
  36.7768553  47.4793833  13.1731673  37.4938553  48.6373833  13.0121673
  37.4508553  47.8543833  13.0311673  46.9418553  37.9583833  12.0211673
  47.6858553  38.4103833  11.9581673  46.3758553  38.4283833  11.5521673
  46.9688553  38.0953833  11.9431673  42.1198553  45.2423833   9.0991673
  42.5958553  45.6163833   9.7271673  41.2968553  45.3763833   9.3581673
  42.0688553  45.3173833   9.2301673  38.8298553  40.8453833  11.8401673
  38.9908553  40.1013833  12.2671673  38.7848553  40.5963833  11.0051673
  38.8468553  40.6983833  11.7801673  41.3838553  52.6353833   4.3271673
  41.9298553  53.3143833   4.3811673  41.0338553  52.7173833   3.5321673
  41.4128553  52.7483833   4.2171673  48.2268553  35.9383833   9.6911673
  47.9468553  36.7633833   9.6471673  48.9428553  35.9913833  10.1871673
  48.2918553  36.0683833   9.7581673  40.5818553  36.6533833  11.7201673
  41.2868553  36.9733833  11.3181673  40.8228553  35.8463833  11.9471673
  40.7208553  36.5813833  11.6941673  39.5668553  50.8633833   7.7161673
  38.9428553  51.4453833   7.5341673  39.8148553  50.5773833   6.9301673
  39.5108553  50.9073833   7.5731673  43.8758553  47.4973833  14.7051673
  44.6328553  47.7833833  14.3791673  43.3288553  47.5493833  14.0271673
  43.9068553  47.5473833  14.5561673  47.7848553  50.0473833  13.2091673
  48.1308553  50.3173833  13.9631673  48.0788553  50.6293833  12.6291673
  47.8798553  50.1733833  13.2351673  37.0908553  41.7063833   7.7811673
  37.5308553  41.6033833   7.0351673  37.6358553  41.3933833   8.3861673
  37.2358553  41.6453833   7.7601673  45.1068553  40.8083833  13.3731673
  44.4588553  41.2783833  13.7211673  45.6718553  40.7193833  14.0321673
  45.0948553  40.8643833  13.5221673  44.7948553  42.3453833   9.6711673
  45.0968553  42.7653833  10.3741673  44.8308553  41.5053833   9.9031673
  44.8448553  42.2833833   9.8091673  42.2198553  52.5123833  13.5961673
  42.6978553  51.9123833  13.1801673  41.8688553  52.0693833  14.2611673
  42.2388553  52.3583833  13.6331673  47.3428553  41.7923833   1.9231673
  47.5498553  41.5913833   2.7471673  48.0988553  42.0603833   1.5811673
  47.4848553  41.8023833   1.9941673  40.6378553  36.6913833   7.8281673
  39.8118553  36.5423833   8.0651673  40.5978553  36.7263833   6.9571673
  40.5098553  36.6743833   7.7341673  48.3648553  37.8753833   3.3971673
  47.6508553  37.4043833   3.5681673  48.2028553  38.2163833   2.6111673
  48.2358553  37.8563833   3.3061673  48.8078553  45.8193833   1.7771673
  49.2838553  45.0903833   1.7291673  47.9868553  45.5333833   1.7011673
  48.7568553  45.6693833   1.7581673  42.2788553  47.7313833  12.6161673
  41.4838553  47.6673833  12.9671673  42.3498553  48.5783833  12.4211673
  42.1718553  47.8463833  12.6391673  33.2028553  37.0893833  13.8631673
  33.0628553  37.8843833  13.5321673  32.4168553  36.8463833  14.1521673
  33.0658553  37.1713833  13.8571673  38.1088553  53.9383833   7.9331673
  38.1198553  53.9973833   8.8031673  37.6838553  53.1913833   7.7831673
  38.0478553  53.8363833   8.0391673  45.0238553  46.9863833   4.1321673
  45.0998553  47.3273833   4.9311673  45.1928553  46.1393833   4.2531673
  45.0598553  46.9113833   4.2681673  42.5458553  46.2603833   3.6971673
  42.2478553  45.9453833   4.4541673  43.2408553  46.7333833   3.9321673
  42.6048553  46.2833833   3.8441673  42.7678553  50.3783833  11.7241673
  43.4548553  50.2643833  12.2491673  42.9018553  51.1693833  11.3801673
  42.8888553  50.4783833  11.7511673  50.9438553  42.9873833  13.5351673
  50.0888553  42.8653833  13.6611673  51.0968553  42.5923833  12.7721673
  50.8398553  42.9103833  13.4411673  45.4568553  43.6523833  12.1111673
  45.2018553  42.9333833  12.5331673  46.2778553  43.7683833  12.3811673
  45.5408553  43.5633833  12.2131673  34.8728553  53.4363833  13.3751673
  34.2188553  52.8673833  13.4731673  34.4978553  54.2093833  13.5261673
  34.7208553  53.4663833  13.4121673  43.3908553  44.8423833  15.2981673
  43.7138553  45.5283833  14.8661673  42.6868553  45.1653833  15.7001673
  43.3338553  44.9913833  15.2931673  46.4748553  53.2163833   6.2271673
  46.0238553  53.8593833   6.6061673  47.1828553  53.1373833   6.7321673
  46.5128553  53.2993833   6.3581673  43.1758553  48.3063833   9.1571673
  42.4818553  48.7083833   9.5001673  43.8528553  48.7393833   9.4961673
  43.1728553  48.4293833   9.2581673  48.5528553  50.8993833  15.7371673
  49.3288553  50.5093833  15.8201673  48.0838553  50.5633833  16.3921673
  48.5978553  50.7923833  15.8461673  36.2438553  41.8443833  11.5041673
  36.6188553  42.4633833  11.0171673  36.9178553  41.3703833  11.7891673
  36.3988553  41.8663833  11.4741673  34.0188553  40.2923833  10.7791673
  34.0958553  40.1233833   9.9261673  34.7648553  40.6983833  10.9761673
  34.1398553  40.3273833  10.6821673  36.5728553  37.7023833  13.1901673
  36.4918553  36.8583833  13.3961673  36.2588553  37.7463833  12.3771673
  36.5148553  37.5843833  13.1001673  43.4978553  49.8973833   2.3261673
  43.2928553  50.7303833   2.1671673  42.7228553  49.5153833   2.4481673
  43.3528553  49.9643833   2.3211673  48.6798553  43.0783833  10.5751673
  48.6778553  42.2153833  10.6991673  48.7468553  43.4023833  11.3821673
  48.6898553  42.9983833  10.7121673  33.4158553  45.5183833  11.0031673
  33.7358553  45.7373833  10.2221673  33.3158553  44.6533833  10.9481673
  33.4478553  45.4233833  10.8801673  44.5588553  37.8783833  14.3571673
  44.6508553  38.5903833  14.8511673  43.9218553  37.4333833  14.7541673
  44.4778553  37.9173833  14.4891673  43.5528553  38.0683833   5.2111673
  42.8528553  38.5863833   5.1551673  43.5908553  37.6883833   4.4271673
  43.4548553  38.0893833   5.0871673  47.1508553  38.5843833   8.0111673
  48.0058553  38.6833833   8.1561673  46.7818553  39.1373833   8.5761673
  47.2228553  38.6813833   8.1161673  38.1788553  44.8103833  12.3881673
  37.7828553  45.5843833  12.4631673  37.7728553  44.4373833  11.7121673
  38.0608553  44.8693833  12.2991673  47.4548553  43.8643833   6.5021673
  48.1208553  44.4053833   6.6621673  47.1098553  44.1753833   5.7631673
  47.5018553  43.9903833   6.4171673  47.7678553  51.9303833   2.3091673
  47.5938553  51.2763833   2.8591673  48.4808553  51.6593833   1.8861673
  47.8478553  51.7933833   2.3281673  38.6078553  37.7873833   9.8381673
  37.7438553  37.8713833   9.9181673  38.8278553  37.2733833  10.5071673
  38.5128553  37.7243833   9.9491673  50.6258553  36.4223833  11.1671673
  50.5738553  36.3783833  12.0371673  51.3128553  35.9193833  10.9771673
  50.7198553  36.3423833  11.2671673  42.7108553  38.5353833   8.2121673
  41.9738553  38.0813833   8.3251673  43.2818553  38.1333833   8.7351673
  42.6858553  38.4083833   8.3061673  45.4428553  49.3833833  10.0001673
  45.6488553  49.6843833  10.7921673  45.3818553  50.1053833   9.5151673
  45.4638553  49.5343833  10.0451673  44.9768553  53.5973833  14.2461673
  44.2238553  53.5793833  13.8051673  45.1448553  54.4493833  14.3301673
  44.8908553  53.7203833  14.1931673  40.2138553  42.8643833  13.4161673
  39.8918553  42.2883833  12.8461673  39.8548553  43.6193833  13.1701673
  40.1138553  42.8903833  13.2961673  50.2548553  48.0223833   9.4581673
  50.2228553  47.1603833   9.3231673  49.5618553  48.3243833   9.0241673
  50.1478553  47.9393833   9.3741673  38.6488553  53.2203833  13.6641673
  38.6898553  53.3463833  14.5271673  39.2998553  52.6603833  13.5081673
  38.7508553  53.1563833  13.7691673  48.3598553  51.2823833   8.2551673
  48.8868553  51.1993833   7.5641673  47.9688553  50.5043833   8.3091673
  48.3798553  51.1553833   8.1611673  35.8278553  37.8703833  10.4861673
  35.4848553  37.1033833  10.2521673  35.1328553  38.3943833  10.5501673
  35.6748553  37.8343833  10.4611673  44.8738553  36.7263833   7.4631673
  45.5438553  37.2703833   7.5901673  44.3708553  37.1503833   6.8901673
  44.8988553  36.8693833   7.3971673  36.2418553  51.6033833  15.0241673
  36.8368553  52.0343833  15.4961673  35.8778553  52.2273833  14.5351673
  36.2758553  51.7593833  15.0211673  44.2328553  42.5343833   4.9561673
  44.7838553  41.9273833   5.2561673  43.8078553  42.7973833   5.6711673
  44.2518553  42.4833833   5.1051673  34.4808553  41.1843833   4.4421673
  34.1128553  41.4863833   5.1731673  35.0148553  40.5553833   4.7261673
  34.5048553  41.1363833   4.5921673  34.1688553  49.5923833  11.9531673
  33.5948553  50.0083833  12.4621673  34.9018553  50.0573833  12.0481673
  34.1928553  49.7223833  12.0421673  49.4768553  45.7383833  14.6691673
  50.1108553  45.5683833  15.2431673  49.8938553  46.1413833  14.0171673
  49.6318553  45.7733833  14.6581673  50.1018553  40.3023833  15.4071673
  49.9058553  40.9463833  15.9621673  49.3798553  39.8123833  15.3991673
  49.9668553  40.3253833  15.4881673  50.0008553  41.2433833   8.3781673
  49.1678553  41.4933833   8.3061673  49.9448553  40.4033833   8.6071673
  49.8698553  41.1563833   8.4011673  39.2608553  38.2313833  13.5721673
  39.4948553  37.6553833  12.9591673  38.4188553  38.0503833  13.7131673
  39.1708553  38.1193833  13.5021673  46.8878553  45.8493833  16.0241673
  47.7588553  45.8133833  15.9881673  46.6688553  46.2693833  15.2921673
  46.9848553  45.9053833  15.9111673  36.6418553  51.6743833   7.2051673
  36.5628553  50.8643833   6.8891673  36.1978553  52.1613833   6.6331673
  36.5648553  51.6263833   7.0741673  34.2138553  53.9183833  10.7861673
  34.7068553  53.8623833  11.5041673  34.4018553  53.1853833  10.3511673
  34.3148553  53.8013833  10.8281673  43.6518553  17.9562753  78.9581313
  43.4068553  18.4442753  78.2781313  44.5148553  17.8832753  78.8581313
  43.7428553  18.0172753  78.8431313  43.4608553  24.8722753  83.6291313
  42.9368553  25.4682753  83.9921313  43.8578553  24.5042753  84.3131313
  43.4418553  24.9062753  83.7841313  33.3298553  29.0122753  79.0851313
  32.8888553  29.1302753  79.8281313  33.0468553  28.2372753  78.8001313
  33.2228553  28.9152753  79.1531313  49.6048553  32.3132753  76.6001313
  50.3058553  31.7942753  76.5961313  49.0178553  31.8682753  76.1311313
  49.6218553  32.1702753  76.5301313  33.0728553  22.8042753  75.5921313
  32.2948553  22.9662753  75.2321313  33.1118553  21.9332753  75.6141313
  32.9638553  22.6992753  75.5421313  36.2118553  28.0672753  74.2641313
  35.8198553  27.6962753  73.5781313  36.1318553  27.4692753  74.8931313
  36.1418553  27.9242753  74.2551313  46.1318553  25.9392753  80.3051313
  46.2118553  25.9432753  79.4361313  45.5478553  25.3072753  80.4541313
  46.0568553  25.8462753  80.1991313  35.8388553  29.7082753  78.1641313
  36.4468553  29.5382753  78.7671313  35.0878553  29.5682753  78.5851313
  35.8178553  29.6622753  78.3151313  40.1208553  19.0432753  78.1131313
  40.0508553  19.7202753  77.5671313  40.8618553  18.6552753  77.8641313
  40.2198553  19.0862753  77.9951313  34.7298553  32.7992753  74.2411313
  35.1968553  32.8832753  73.5091313  35.1848553  32.2212753  74.7101313
  34.8658553  32.7262753  74.2021313  33.2698553  31.7472753  85.3401313
  33.3988553  31.4672753  86.1561313  32.6598553  31.2062753  85.0311313
  33.1988553  31.6262753  85.4151313  34.7158553  26.2682753  79.5421313
  34.2538553  25.8762753  78.9151313  35.4158553  25.7552753  79.6341313
  34.7508553  26.1352753  79.4631313  39.2238553  21.8782753  84.8891313
  39.9018553  21.8962753  84.3401313  39.1788553  21.0422753  85.1341313
  39.3168553  21.7572753  84.8441313  39.8258553  32.4642753  87.6701313
  39.9638553  33.2242753  87.2631313  40.6168553  32.0992753  87.6971313
  39.9628553  32.5232753  87.6141313  36.7168553  24.3682753  79.5651313
  37.5338553  24.1812753  79.8081313  36.2398553  23.7542753  79.9611313
  36.7668553  24.2502753  79.6601313  40.9208553  30.3492753  82.1751313
  41.2688553  29.5502753  82.2051313  41.5858553  30.8532753  81.9201313
  41.0708553  30.3052753  82.1421313  40.9778553  29.7982753  78.3861313
  41.3088553  29.1542753  78.8721313  41.2178553  29.5872753  77.5751313
  41.0618553  29.6722753  78.3381313  37.3138553  19.4622753  78.8311313
  37.0178553  19.9632753  78.1811313  38.1808553  19.5402753  78.7741313
  37.3978553  19.5482753  78.7271313  40.2928553  18.6042753  81.0541313
  40.3658553  19.4642753  81.1831313  40.2548553  18.5292753  80.1861313
  40.2978553  18.7202753  80.9451313  44.9658553  21.5302753  73.3531313
  44.5158553  22.2112753  73.6601313  45.0798553  21.0262753  74.0561313
  44.9168553  21.5562753  73.5021313  33.1718553  24.0292753  82.5551313
  32.9158553  24.8602753  82.4801313  32.5078553  23.6462753  82.9721313
  33.0358553  24.0952753  82.6061313  33.0818553  33.7392753  80.4551313
  32.4898553  34.2972753  80.1421313  33.5078553  33.4702753  79.7431313
  33.0578553  33.7812753  80.3041313  38.9218553  31.5832753  77.9351313
  38.3428553  31.3082753  78.5271313  39.5458553  30.9742753  77.9601313
  38.9288553  31.4532753  78.0261313  45.0648553  33.8712753  75.4571313
  45.7918553  34.3432753  75.5591313  45.2938553  33.0772753  75.7371313
  45.2068553  33.8242753  75.5141313  43.2328553  34.2632753  77.4471313
  43.4468553  34.7902753  78.1091313  43.9998553  34.0892753  77.0681313
  43.3778553  34.3152753  77.4891313  36.2008553  18.8462753  83.0461313
  35.6798553  18.2182753  82.7381313  36.7918553  18.4092753  83.5171313
  36.2118553  18.6882753  83.0701313  34.6268553  32.4092753  78.3861313
  35.2828553  31.8342753  78.4011313  35.0158553  33.1582753  78.1651313
  34.7818553  32.4342753  78.3561313  50.3598553  21.5032753  79.6481313
  50.0138553  22.1812753  80.0741313  49.7238553  20.9052753  79.6641313
  50.2148553  21.5152753  79.7131313  45.6718553  34.2732753  85.7521313
  46.4158553  34.7292753  85.7421313  45.5508553  34.0592753  84.9151313
  45.7638553  34.3092753  85.6271313  35.4448553  30.8962753  81.8861313
  35.8678553  30.5402753  81.2121313  35.7688553  30.4742753  82.5781313
  35.5548553  30.7812753  81.8891313  38.6758553  33.7482753  81.1821313
  39.5198553  33.8522753  80.9871313  38.3788553  34.5662753  81.2501313
  38.7568553  33.8842753  81.1631313  42.4828553  23.1452753  79.2691313
  42.7698553  22.9132753  78.4791313  43.2148553  23.2242753  79.7381313
  42.6328553  23.1222753  79.2221313  43.2048553  23.4842753  74.3901313
  43.4858553  24.2722753  74.6391313  42.4288553  23.6492753  74.0271313
  43.1318553  23.6252753  74.3731313  47.2458553  35.4582753  75.8571313
  47.9108553  35.3102753  75.3121313  47.6058553  35.3752753  76.6471313
  47.3978553  35.4242753  75.8931313  37.6738553  34.9672753  86.9221313
  37.9658553  34.9002753  87.7421313  37.0478553  34.3622753  86.8771313
  37.6248553  34.8682753  87.0371313  50.0348553  19.8262753  85.0171313
  50.7918553  19.8982753  84.5891313  50.0978553  19.0532753  85.4161313
  50.1558553  19.7232753  85.0121313  42.0638553  31.6552753  74.2061313
  41.8828553  32.2002753  74.8631313  42.8298553  31.9452753  73.9051313
  42.1498553  31.7792753  74.2591313  45.5708553  19.5512753  75.2601313
  46.1108553  18.8692753  75.3361313  45.6328553  19.9492753  76.0341313
  45.6598553  19.5092753  75.3861313  33.5248553  20.7192753  77.8291313
  33.4108553  19.8552753  77.8601313  33.0498553  21.0132753  78.4991313
  33.4378553  20.6352753  77.9321313  35.6668553  33.1292753  86.0441313
  34.9688553  32.6212753  86.1701313  35.9268553  32.9242753  85.2361313
  35.6018553  33.0242753  85.9431313  42.8288553  21.9272753  76.5741313
  42.3208553  21.2652753  76.3201313  42.8808553  22.4312753  75.8641313
  42.7618553  21.9042753  76.4321313  43.3778553  34.6222753  86.9541313
  44.1458553  34.5422753  86.5481313  42.7948553  34.5012753  86.3161313
  43.4048553  34.5922753  86.8001313  42.8288553  18.8682753  76.4651313
  42.3738553  18.4662753  75.8391313  43.6018553  19.0232753  76.0901313
  42.8758553  18.8322753  76.3171313  49.6548553  35.2252753  79.8551313
  49.1998553  35.9422753  80.0561313  49.0408553  34.6542753  79.6131313
  49.4968553  35.2472753  79.8491313  41.4268553  21.2352753  80.9871313
  41.5008553  21.8032753  80.3291313  41.5478553  21.7272753  81.6971313
  41.4548553  21.3922753  80.9951313  46.6518553  31.0702753  79.3991313
  47.3528553  30.5882753  79.5881313  45.9918553  30.5012753  79.4441313
  46.6578553  30.9152753  79.4331313  36.0348553  17.0582753  79.3351313
  36.5708553  17.7462753  79.3251313  36.0378553  16.7842753  78.5071313
  36.1138553  17.1192753  79.2111313  38.9908553  27.4912753  83.3601313
  39.1628553  27.2812753  84.1891313  38.3358553  26.9572753  83.1441313
  38.9198553  27.3812753  83.4511313  45.2188553  21.4052753  86.8751313
  45.1238553  21.7242753  87.6811313  44.6258553  20.7662753  86.8371313
  45.1168553  21.3572753  86.9891313  39.7408553  27.4292753  85.9501313
  39.7938553  28.2762753  86.1521313  39.4558553  27.0592753  86.6871313
  39.7068553  27.4992753  86.0881313  45.9178553  28.1242753  85.0801313
  45.4038553  27.7122753  85.6511313  45.7918553  28.9682753  85.2611313
  45.8238553  28.1882753  85.1911313  46.4748553  17.3492753  79.7111313
  46.5238553  17.0312753  80.5221313  46.7978553  16.7052753  79.2181313
  46.5298553  17.2072753  79.7581313  36.4828553  20.8682753  80.9891313
  36.7548553  20.4382753  80.2811313  36.3068553  20.2322753  81.5601313
  36.4968553  20.7112753  80.9691313  49.1708553  28.5632753  75.2071313
  49.2898553  28.2762753  76.0221313  49.9778553  28.5842753  74.8771313
  49.3068553  28.5242753  75.2791313  36.3068553  28.2952753  80.5381313
  37.1578553  28.2152753  80.3651313  35.9498553  27.6132753  80.1261313
  36.3798553  28.1822753  80.4511313  35.0738553  35.0202753  81.7751313
  34.4008553  34.5222753  81.5301313  35.4768553  35.2052753  81.0241313
  35.0338553  34.9742753  81.6281313  34.6238553  21.9702753  84.0711313
  35.4668553  22.1902753  84.0281313  34.2348553  22.5432753  83.5401313
  34.6908553  22.0872753  83.9861313  47.0658553  25.1002753  74.7921313
  46.8458553  25.8312753  74.3701313  46.6178553  25.1512753  75.5391313
  46.9668553  25.2152753  74.8401313  38.6748553  28.3022753  78.7731313
  39.3878553  28.7972753  78.8631313  38.8968553  27.7352753  78.1471313
  38.8128553  28.2912753  78.6941313  51.2528553  19.9612753  74.2451313
  50.5908553  19.3932753  74.2681313  51.0598553  20.4732753  73.5651313
  51.1268553  19.9532753  74.1481313  32.8308553  29.9452753  82.0931313
  32.1638553  30.4332753  82.3691313  33.5108553  30.4902753  82.1221313
  32.8328553  30.0972753  82.1381313  51.5758553  24.3392753  86.8011313
  51.7908553  23.5392753  86.5251313  50.7258553  24.3992753  86.6121313
  51.4818553  24.2302753  86.7321313  32.8968553  26.6292753  77.1961313
  32.7118553  25.7902753  77.3481313  33.5558553  26.5932753  76.6261313
  32.9668553  26.5002753  77.1341313  49.2548553  19.5192753  76.5241313
  50.0008553  19.1122753  76.7231313  49.5178553  20.2342753  76.0991313
  49.4038553  19.5652753  76.4911313  43.1978553  32.0052753  81.1001313
  42.6748553  32.6392753  80.8071313  43.5078553  31.6412753  80.3711313
  43.1658553  32.0452753  80.9491313  33.0688553  30.7932753  76.7711313
  33.6208553  31.3622753  77.1351313  32.8368553  30.2782753  77.4361313
  33.1158553  30.8012753  76.9231313  37.2728553  29.7932753  83.8601313
  37.7398553  30.0822753  84.5381313  37.8448553  29.3152753  83.4061313
  37.4268553  29.7652753  83.8931313  45.7088553  21.8072753  81.5971313
  46.0528553  21.9592753  82.3841313  45.2558553  21.0692753  81.7101313
  45.6928553  21.7202753  81.7301313  33.8388553  27.4632753  82.4041313
  34.2698553  27.3342753  81.6571313  33.6338553  28.3112753  82.3781313
  33.8718553  27.5692753  82.2901313  40.1848553  21.0272753  76.0541313
  40.1828553  20.9102753  75.1891313  40.0038553  21.8752753  76.1461313
  40.1578553  21.1352753  75.9401313  49.2388553  33.4542753  87.5511313
  48.5678553  33.9682753  87.7691313  49.3018553  33.5542753  86.6871313
  49.1488553  33.5452753  87.4561313  37.9228553  30.9792753  80.6861313
  38.0488553  31.8222753  80.8731313  38.5908553  30.5802753  81.0821313
  38.0408553  31.0452753  80.7721313  36.5378553  23.8592753  75.6881313
  36.4098553  23.4112753  76.4261313  35.9558553  23.5172753  75.1361313
  36.4328553  23.7422753  75.7161313  36.7048553  25.6892753  82.2871313
  35.9238553  25.6302753  81.9041313  36.7768553  24.9372753  82.7241313
  36.5998553  25.5702753  82.2951313  37.1348553  25.4262753  85.7551313
  37.1598553  24.7512753  85.2041313  36.4888553  25.9222753  85.4431313
  37.0438553  25.3992753  85.6281313  47.0298553  23.1392753  84.1511313
  46.3678553  23.4672753  84.6141313  47.2168553  23.7732753  83.5821313
  46.9598553  23.2812753  84.1351313  41.2348553  34.2032753  85.1471313
  40.9578553  33.5622753  84.6241313  41.0268553  34.9292753  84.7091313
  41.1638553  34.2162753  85.0051313  45.2228553  21.1082753  77.6621313
  45.7128553  21.8252753  77.5851313  44.4328553  21.3692753  77.3991313
  45.1788553  21.2522753  77.6121313  41.8048553  22.5782753  83.3871313
  42.2848553  23.2772753  83.5951313  42.1778553  21.9312753  83.8381313
  41.9308553  22.5862753  83.4841313  43.9938553  25.7472753  75.6611313
  43.9858553  26.4692753  75.1711313  43.3548553  25.8822753  76.2381313
  43.8988553  25.8742753  75.6741313  48.9658553  29.6172753  79.6421313
  49.3218553  29.2672753  80.3571313  48.9578553  28.9562753  79.0721313
  49.0178553  29.4672753  79.6631313  45.0108553  32.6832753  83.4861313
  44.4078553  32.3872753  82.9291313  45.5558553  33.1352753  82.9771313
  45.0018553  32.7062753  83.3281313  45.0238553  29.5342753  82.8861313
  44.2268553  29.7582753  83.1601313  45.2818553  28.9402753  83.4711313
  44.9438553  29.4792753  83.0131313  38.9158553  34.3462753  77.3341313
  38.7688553  33.5702753  77.7051313  39.6048553  34.1992753  76.8191313
  38.9958553  34.2092753  77.3131313  38.5868553  18.0892753  75.3221313
  38.6838553  17.9822753  76.1831313  37.8788553  18.5952753  75.2571313
  38.4968553  18.1482753  75.4401313  41.2078553  33.8622753  75.7361313
  41.8298553  34.0252753  76.3261313  41.2438553  34.5532753  75.2041313
  41.3048553  33.9882753  75.7451313  48.2838553  27.5322753  87.7321313
  48.3388553  27.6572753  86.8701313  49.0368553  27.8522753  88.0341313
  48.4028553  27.5972753  87.6491313  35.7088553  26.3962753  76.5651313
  36.0328553  25.6172753  76.3431313  36.3548553  26.7642753  77.0201313
  35.8518553  26.3352753  76.5991313  44.0148553  27.3382753  87.3321313
  43.8598553  27.9482753  87.9361313  44.5488553  26.7802753  87.7381313
  44.0708553  27.3462753  87.4811313  32.7058553  18.0572753  77.5331313
  32.8348553  17.3492753  77.0411313  32.3388553  17.7392753  78.2581313
  32.6708553  17.9052753  77.5681313  42.3988553  25.7382753  77.9901313
  42.4578553  26.3882753  78.5691313  42.2098553  25.0422753  78.4811313
  42.3798553  25.7312753  78.1481313  47.6248553  30.0672753  83.8591313
  47.1458553  30.3652753  83.1931313  47.2688553  29.2912753  84.0371313
  47.5018553  29.9962753  83.7871313  36.8948553  20.2552753  74.5021313
  36.3838553  20.3082753  73.7961313  37.6788553  20.4952753  74.2061313
  36.9348553  20.2982753  74.3541313  41.6218553  27.7852753  82.4211313
  40.7748553  27.5912753  82.5021313  41.9458553  27.6202753  83.2141313
  41.5438553  27.7322753  82.5501313  38.3738553  34.5152753  73.3071313
  38.8128553  33.8182753  73.5951313  38.5808553  35.1392753  73.8801313
  38.4698553  34.5042753  73.4341313  35.4698553  27.4782753  84.7371313
  36.1918553  27.9662753  84.7001313  35.1998553  27.4482753  83.9081313
  35.5368553  27.5462753  84.6091313  38.6998553  22.6492753  81.4721313
  39.5458553  22.4592753  81.5701313  38.3298553  21.8722753  81.3341313
  38.7698553  22.5062753  81.4661313  51.3168553  34.2332753  75.7991313
  52.0108553  33.7662753  75.5511313  50.7778553  33.6352753  76.1361313
  51.3398553  34.0752753  75.8121313  33.5208553  23.9872753  78.1271313
  34.0098553  23.6952753  78.7881313  33.6498553  23.3942753  77.5001313
  33.6118553  23.8562753  78.1321313  48.5558553  27.0092753  84.9781313
  48.5488553  26.2332753  85.3761313  47.7148553  27.2432753  84.9711313
  48.4308553  26.9292753  85.0361313  38.0458553  25.4212753  73.6131313
  37.4358553  25.0162753  74.0871313  37.6598553  25.5392753  72.8401313
  37.8988553  25.3782753  73.5691313  49.8118553  27.0802753  82.4151313
  49.5258553  27.4812753  83.1351313  50.6718553  27.0182753  82.5421313
  49.8968553  27.1302753  82.5401313  39.5008553  23.8822753  76.3231313
  39.7728553  24.7082753  76.3901313  38.6378553  23.9572753  76.2271313
  39.4138553  24.0152753  76.3181313  32.9808553  19.8522753  82.8591313
  33.0248553  20.1962753  82.0581313  33.7358553  20.0892753  83.2261313
  33.0988553  19.9382753  82.7951313  50.9428553  32.7132753  82.9441313
  51.2328553  32.9702753  82.1631313  51.6378553  32.8092753  83.4631313
  51.0888553  32.7652753  82.9051313  47.5478553  31.3162753  74.9261313
  47.8818553  30.5102753  74.9611313  46.7928553  31.2442753  75.3561313
  47.4858553  31.1862753  74.9951313  48.0298553  23.1502753  80.5851313
  47.2848553  22.8272753  80.9031313  48.0318553  23.9762753  80.8651313
  47.9198553  23.2242753  80.6731313  44.9218553  29.1912753  74.3291313
  45.6058553  28.6772753  74.1601313  44.5048553  29.2372753  73.5641313
  44.9608553  29.1222753  74.1911313  39.6038553  30.3412753  85.6331313
  39.3058553  30.9332753  86.2001313  39.6588553  30.7832753  84.8841313
  39.5678553  30.4942753  85.6061313  46.9418553  19.4802753  88.0461313
  47.6858553  19.9322753  87.9831313  46.3758553  19.9502753  87.5771313
  46.9688553  19.6172753  87.9681313  42.1198553  26.7642753  85.1241313
  42.5958553  27.1382753  85.7521313  41.2968553  26.8982753  85.3831313
  42.0688553  26.8392753  85.2551313  41.3838553  34.1572753  80.3521313
  41.9298553  34.8362753  80.4061313  41.0338553  34.2392753  79.5571313
  41.4128553  34.2702753  80.2421313  48.2268553  17.4602753  85.7161313
  47.9468553  18.2852753  85.6721313  48.9428553  17.5132753  86.2121313
  48.2918553  17.5902753  85.7831313  40.5818553  18.1752753  87.7451313
  41.2868553  18.4952753  87.3431313  40.8228553  17.3682753  87.9721313
  40.7208553  18.1032753  87.7191313  39.5668553  32.3852753  83.7411313
  38.9428553  32.9672753  83.5591313  39.8148553  32.0992753  82.9551313
  39.5108553  32.4292753  83.5981313  49.6478553  23.7152753  74.5731313
  50.0258553  24.3922753  74.1731313  48.8058553  23.9392753  74.6041313
  49.5788553  23.8482753  74.5181313  41.1608553  27.1612753  73.6561313
  40.3558553  26.9842753  73.3711313  41.1278553  28.0122753  73.8481313
  41.0368553  27.2602753  73.6431313  37.0908553  23.2282753  83.8061313
  37.5308553  23.1252753  83.0601313  37.6358553  22.9152753  84.4111313
  37.2358553  23.1672753  83.7851313  44.7948553  23.8672753  85.6961313
  45.0968553  24.2872753  86.3991313  44.8308553  23.0272753  85.9281313
  44.8448553  23.8052753  85.8341313  47.3428553  23.3142753  77.9481313
  47.5498553  23.1132753  78.7721313  48.0988553  23.5822753  77.6061313
  47.4848553  23.3242753  78.0191313  40.6378553  18.2132753  83.8531313
  39.8118553  18.0642753  84.0901313  40.5978553  18.2482753  82.9821313
  40.5098553  18.1962753  83.7591313  48.3648553  19.3972753  79.4221313
  47.6508553  18.9262753  79.5931313  48.2028553  19.7382753  78.6361313
  48.2358553  19.3782753  79.3311313  48.8078553  27.3412753  77.8021313
  49.2838553  26.6122753  77.7541313  47.9868553  27.0552753  77.7261313
  48.7568553  27.1912753  77.7831313  38.1088553  35.4602753  83.9581313
  38.1198553  35.5192753  84.8281313  37.6838553  34.7132753  83.8081313
  38.0478553  35.3582753  84.0641313  36.2668553  21.3552753  77.1131313
  36.3928553  21.0262753  76.3151313  35.4548553  21.1062753  77.3121313
  36.1658553  21.2702753  77.0251313  45.0238553  28.5082753  80.1571313
  45.0998553  28.8492753  80.9561313  45.1928553  27.6612753  80.2781313
  45.0598553  28.4332753  80.2931313  42.5458553  27.7822753  79.7221313
  42.2478553  27.4672753  80.4791313  43.2408553  28.2552753  79.9571313
  42.6048553  27.8052753  79.8691313  46.4748553  34.7382753  82.2521313
  46.0238553  35.3812753  82.6311313  47.1828553  34.6592753  82.7571313
  46.5128553  34.8212753  82.3831313  43.1758553  29.8282753  85.1821313
  42.4818553  30.2302753  85.5251313  43.8528553  30.2612753  85.5211313
  43.1728553  29.9512753  85.2831313  36.2438553  23.3662753  87.5291313
  36.6188553  23.9852753  87.0421313  36.9178553  22.8922753  87.8141313
  36.3988553  23.3882753  87.4991313  34.0188553  21.8142753  86.8041313
  34.0958553  21.6452753  85.9511313  34.7648553  22.2202753  87.0011313
  34.1398553  21.8492753  86.7071313  49.5778553  24.4542753  77.2441313
  49.6808553  24.3962753  76.3801313  50.3188553  24.1222753  77.5621313
  49.7028553  24.3972753  77.1631313  43.4978553  31.4192753  78.3511313
  43.2928553  32.2522753  78.1921313  42.7228553  31.0372753  78.4731313
  43.3528553  31.4862753  78.3461313  48.6798553  24.6002753  86.6001313
  48.6778553  23.7372753  86.7241313  48.7468553  24.9242753  87.4071313
  48.6898553  24.5202753  86.7371313  33.4158553  27.0402753  87.0281313
  33.7358553  27.2592753  86.2471313  33.3158553  26.1752753  86.9731313
  33.4478553  26.9452753  86.9051313  34.8718553  22.9762753  73.6461313
  34.1998553  22.9902753  74.2021313  34.9668553  22.1282753  73.4621313
  34.7868553  22.8532753  73.7011313  43.5528553  19.5902753  81.2361313
  42.8528553  20.1082753  81.1801313  43.5908553  19.2102753  80.4521313
  43.4548553  19.6112753  81.1121313  38.8598553  31.6812753  74.7601313
  39.3008553  31.7612753  75.5081313  38.0548553  31.4652753  75.0181313
  38.8058553  31.6612753  74.9091313  47.1508553  20.1062753  84.0361313
  48.0058553  20.2052753  84.1811313  46.7818553  20.6592753  84.6011313
  47.2228553  20.2032753  84.1411313  47.4548553  25.3862753  82.5271313
  48.1208553  25.9272753  82.6871313  47.1098553  25.6972753  81.7881313
  47.5018553  25.5122753  82.4421313  47.7678553  33.4522753  78.3341313
  47.5938553  32.7982753  78.8841313  48.4808553  33.1812753  77.9111313
  47.8478553  33.3152753  78.3531313  36.1888553  30.7512753  75.3611313
  35.9448553  30.4442753  76.1411313  36.1558553  30.0482753  74.8451313
  36.1478553  30.6022753  75.4001313  39.0078553  28.9962753  74.1041313
  38.1898553  28.7282753  74.2441313  38.9798553  29.8482753  74.2891313
  38.8828553  29.0832753  74.1521313  38.6078553  19.3092753  85.8631313
  37.7438553  19.3932753  85.9431313  38.8278553  18.7952753  86.5321313
  38.5128553  19.2462753  85.9741313  50.6258553  17.9442753  87.1921313
  50.5738553  17.9002753  88.0621313  51.3128553  17.4412753  87.0021313
  50.7198553  17.8642753  87.2921313  42.7108553  20.0572753  84.2371313
  41.9738553  19.6032753  84.3501313  43.2818553  19.6552753  84.7601313
  42.6858553  19.9302753  84.3311313  45.4428553  30.9052753  86.0251313
  45.6488553  31.2062753  86.8171313  45.3818553  31.6272753  85.5401313
  45.4638553  31.0562753  86.0701313  41.0098553  17.6382753  74.0681313
  41.0878553  17.8852753  73.2351313  40.2668553  18.0152753  74.3261313
  40.9118553  17.7302753  73.9831313  50.2548553  29.5442753  85.4831313
  50.2228553  28.6822753  85.3481313  49.5618553  29.8462753  85.0491313
  50.1478553  29.4612753  85.3991313  48.3598553  32.8042753  84.2801313
  48.8868553  32.7212753  83.5891313  47.9688553  32.0262753  84.3341313
  48.3798553  32.6772753  84.1861313  35.8278553  19.3922753  86.5111313
  35.4848553  18.6252753  86.2771313  35.1328553  19.9162753  86.5751313
  35.6748553  19.3562753  86.4861313  44.8738553  18.2482753  83.4881313
  45.5438553  18.7922753  83.6151313  44.3708553  18.6722753  82.9151313
  44.8988553  18.3912753  83.4221313  44.2328553  24.0562753  80.9811313
  44.7838553  23.4492753  81.2811313  43.8078553  24.3192753  81.6961313
  44.2518553  24.0052753  81.1301313  34.4808553  22.7062753  80.4671313
  34.1128553  23.0082753  81.1981313  35.0148553  22.0772753  80.7511313
  34.5048553  22.6582753  80.6171313  46.2028553  25.8872753  77.5431313
  46.2708553  25.0372753  77.7241313  45.3798553  25.9732753  77.2651313
  46.0908553  25.7742753  77.5291313  40.1218553  26.7782753  76.4811313
  40.2218553  26.9172753  75.6261313  40.9398553  26.7182753  76.7771313
  40.2568553  26.7892753  76.3981313  49.2818553  34.8422753  73.9611313
  49.9188553  34.7082753  74.5421313  48.9408553  34.0482753  73.8441313
  49.3258553  34.7052753  74.0291313  45.3568553  31.1072753  76.2831313
  45.1058553  30.9792753  77.1091313  45.0398553  30.4122753  75.8621313
  45.2728553  30.9862753  76.3431313  50.0008553  22.7652753  84.4031313
  49.1678553  23.0152753  84.3311313  49.9448553  21.9252753  84.6321313
  49.8698553  22.6782753  84.4261313  36.6418553  33.1962753  83.2301313
  36.5628553  32.3862753  82.9141313  36.1978553  33.6832753  82.6581313
  36.5648553  33.1482753  83.0991313  42.2428553  29.3152753  75.7131313
  42.9598553  28.9682753  75.3571313  42.2088553  30.1152753  75.3651313
  42.3438553  29.3822753  75.6091313  34.2138553  35.4402753  86.8111313
  34.7068553  35.3842753  87.5291313  34.4018553  34.7072753  86.3761313
  34.3148553  35.3232753  86.8531313  43.6518553  17.9562753  59.9518903
  43.4068553  18.4442753  59.2718903  44.5148553  17.8832753  59.8518903
  43.7428553  18.0172753  59.8368903  43.4608553  24.8722753  64.6228903
  42.9368553  25.4682753  64.9858903  43.8578553  24.5042753  65.3068903
  43.4418553  24.9062753  64.7778903  49.6048553  32.3132753  57.5938903
  50.3058553  31.7942753  57.5898903  49.0178553  31.8682753  57.1248903
  49.6218553  32.1702753  57.5238903  46.1318553  25.9392753  61.2988903
  46.2118553  25.9432753  60.4298903  45.5478553  25.3072753  61.4478903
  46.0568553  25.8462753  61.1928903  40.1208553  19.0432753  59.1068903
  40.0508553  19.7202753  58.5608903  40.8618553  18.6552753  58.8578903
  40.2198553  19.0862753  58.9888903  39.8438553  29.2722753  71.4008903
  39.6078553  29.2692753  72.2408903  39.0958553  29.1242753  70.9768903
  39.6978553  29.2492753  71.4618903  39.2238553  21.8782753  65.8828903
  39.9018553  21.8962753  65.3338903  39.1788553  21.0422753  66.1278903
  39.3168553  21.7572753  65.8378903  39.8258553  32.4642753  68.6638903
  39.9638553  33.2242753  68.2568903  40.6168553  32.0992753  68.6908903
  39.9628553  32.5232753  68.6078903  42.9458553  23.9292753  70.7188903
  42.0978553  23.8302753  70.5408903  42.9748553  24.6742753  71.1728903
  42.8248553  24.0252753  70.7598903  37.3138553  19.4622753  59.8248903
  37.0178553  19.9632753  59.1748903  38.1808553  19.5402753  59.7678903
  37.3978553  19.5482753  59.7208903  47.5038553  16.8892753  69.8328903
  47.3458553  17.6582753  69.4508903  46.7318553  16.6692753  70.1768903
  47.3658553  16.9702753  69.8278903  40.2928553  18.6042753  62.0478903
  40.3658553  19.4642753  62.1768903  40.2548553  18.5292753  61.1798903
  40.2978553  18.7202753  61.9388903  44.9658553  21.5302753  54.3468903
  44.5158553  22.2112753  54.6538903  45.0798553  21.0262753  55.0498903
  44.9168553  21.5562753  54.4958903  45.0648553  33.8712753  56.4508903
  45.7918553  34.3432753  56.5528903  45.2938553  33.0772753  56.7308903
  45.2068553  33.8242753  56.5078903  43.2328553  34.2632753  58.4408903
  43.4468553  34.7902753  59.1028903  43.9998553  34.0892753  58.0618903
  43.3778553  34.3152753  58.4828903  36.2008553  18.8462753  64.0398903
  35.6798553  18.2182753  63.7318903  36.7918553  18.4092753  64.5108903
  36.2118553  18.6882753  64.0638903  39.5068553  20.9792753  73.3378903
  39.6238553  20.5252753  72.6018903  39.7948553  21.7772753  73.1348903
  39.5668553  21.0302753  73.1988903  50.3598553  21.5032753  60.6418903
  50.0138553  22.1812753  61.0678903  49.7238553  20.9052753  60.6578903
  50.2148553  21.5152753  60.7068903  45.6718553  34.2732753  66.7458903
  46.4158553  34.7292753  66.7358903  45.5508553  34.0592753  65.9088903
  45.7638553  34.3092753  66.6208903  35.2398553  20.5762753  72.3218903
  34.4618553  20.1862753  72.2498903  35.7308553  20.1642753  71.7308903
  35.1968553  20.4572753  72.2238903  41.8888553  18.2192753  71.4898903
  42.0668553  17.4102753  71.2148903  41.7458553  18.6602753  70.7508903
  41.8938553  18.1652753  71.3398903  42.4828553  23.1452753  60.2628903
  42.7698553  22.9132753  59.4728903  43.2148553  23.2242753  60.7318903
  42.6328553  23.1222753  60.2158903  43.2048553  23.4842753  55.3838903
  43.4858553  24.2722753  55.6328903  42.4288553  23.6492753  55.0208903
  43.1318553  23.6252753  55.3668903  47.2458553  35.4582753  56.8508903
  47.9108553  35.3102753  56.3058903  47.6058553  35.3752753  57.6408903
  47.3978553  35.4242753  56.8868903  50.0348553  19.8262753  66.0108903
  50.7918553  19.8982753  65.5828903  50.0978553  19.0532753  66.4098903
  50.1558553  19.7232753  66.0058903  32.5878553  21.1242753  69.9078903
  32.5838553  21.7112753  70.5538903  33.1818553  21.4362753  69.3508903
  32.6748553  21.2572753  69.9208903  44.9258553  31.4582753  70.4498903
  44.8918553  31.8402753  71.2338903  45.7798553  31.4162753  70.2788903
  45.0468553  31.5082753  70.5408903  42.0638553  31.6552753  55.1998903
  41.8828553  32.2002753  55.8568903  42.8298553  31.9452753  54.8988903
  42.1498553  31.7792753  55.2528903  45.5708553  19.5512753  56.2538903
  46.1108553  18.8692753  56.3298903  45.6328553  19.9492753  57.0278903
  45.6598553  19.5092753  56.3798903  33.5248553  20.7192753  58.8228903
  33.4108553  19.8552753  58.8538903  33.0498553  21.0132753  59.4928903
  33.4378553  20.6352753  58.9258903  42.8288553  21.9272753  57.5678903
  42.3208553  21.2652753  57.3138903  42.8808553  22.4312753  56.8578903
  42.7618553  21.9042753  57.4258903  43.3778553  34.6222753  67.9478903
  44.1458553  34.5422753  67.5418903  42.7948553  34.5012753  67.3098903
  43.4048553  34.5922753  67.7938903  42.8288553  18.8682753  57.4588903
  42.3738553  18.4662753  56.8328903  43.6018553  19.0232753  57.0838903
  42.8758553  18.8322753  57.3108903  49.6548553  35.2252753  60.8488903
  49.1998553  35.9422753  61.0498903  49.0408553  34.6542753  60.6068903
  49.4968553  35.2472753  60.8428903  41.4268553  21.2352753  61.9808903
  41.5008553  21.8032753  61.3228903  41.5478553  21.7272753  62.6908903
  41.4548553  21.3922753  61.9888903  46.6518553  31.0702753  60.3928903
  47.3528553  30.5882753  60.5818903  45.9918553  30.5012753  60.4378903
  46.6578553  30.9152753  60.4268903  36.0348553  17.0582753  60.3288903
  36.5708553  17.7462753  60.3188903  36.0378553  16.7842753  59.5008903
  36.1138553  17.1192753  60.2048903  45.2188553  21.4052753  67.8688903
  45.1238553  21.7242753  68.6748903  44.6258553  20.7662753  67.8308903
  45.1168553  21.3572753  67.9828903  45.9178553  28.1242753  66.0738903
  45.4038553  27.7122753  66.6448903  45.7918553  28.9682753  66.2548903
  45.8238553  28.1882753  66.1848903  46.4748553  17.3492753  60.7048903
  46.5238553  17.0312753  61.5158903  46.7978553  16.7052753  60.2118903
  46.5298553  17.2072753  60.7518903  32.5618553  31.8002753  73.1548903
  33.3178553  32.1492753  73.4128903  32.7388553  30.9472753  73.0978903
  32.6998553  31.7252753  73.1848903  48.9388553  21.5852753  69.0128903
  49.7108553  21.3602753  69.3498903  48.4638553  21.8022753  69.7128903
  48.9828553  21.5842753  69.1658903  49.1708553  28.5632753  56.2008903
  49.2898553  28.2762753  57.0158903  49.9778553  28.5842753  55.8708903
  49.3068553  28.5242753  56.2728903  51.4048553  33.0722753  70.4548903
  50.7228553  33.3822753  70.0078903  51.0358553  32.6142753  71.0998903
  51.2488553  33.0502753  70.4838903  47.0658553  25.1002753  55.7858903
  46.8458553  25.8312753  55.3638903  46.6178553  25.1512753  56.5328903
  46.9668553  25.2152753  55.8338903  51.2528553  19.9612753  55.2388903
  50.5908553  19.3932753  55.2618903  51.0598553  20.4732753  54.5588903
  51.1268553  19.9532753  55.1418903  40.4778553  23.6552753  73.1828903
  39.9938553  24.2322753  73.6248903  40.4498553  23.9502753  72.3618903
  40.4018553  23.7842753  73.1268903  51.5758553  24.3392753  67.7948903
  51.7908553  23.5392753  67.5188903  50.7258553  24.3992753  67.6058903
  51.4818553  24.2302753  67.7258903  49.2548553  19.5192753  57.5178903
  50.0008553  19.1122753  57.7168903  49.5178553  20.2342753  57.0928903
  49.4038553  19.5652753  57.4848903  45.7088553  21.8072753  62.5908903
  46.0528553  21.9592753  63.3778903  45.2558553  21.0692753  62.7038903
  45.6928553  21.7202753  62.7238903  40.1848553  21.0272753  57.0478903
  40.1828553  20.9102753  56.1828903  40.0038553  21.8752753  57.1398903
  40.1578553  21.1352753  56.9338903  49.2388553  33.4542753  68.5448903
  48.5678553  33.9682753  68.7628903  49.3018553  33.5542753  67.6808903
  49.1488553  33.5452753  68.4498903  36.0528553  24.4622753  71.5418903
  35.5168553  23.9562753  72.0098903  36.0728553  24.0722753  70.7618903
  35.9758553  24.3292753  71.4958903  47.0298553  23.1392753  65.1448903
  46.3678553  23.4672753  65.6078903  47.2168553  23.7732753  64.5758903
  46.9598553  23.2812753  65.1288903  43.6748553  19.0452753  68.5738903
  43.8238553  18.2202753  68.3308903  44.0538553  19.1002753  69.3578903
  43.7528553  18.9312753  68.6538903  45.2228553  21.1082753  58.6558903
  45.7128553  21.8252753  58.5788903  44.4328553  21.3692753  58.3928903
  45.1788553  21.2522753  58.6058903  34.9338553  26.7812753  72.3078903
  34.8968553  27.2822753  71.5938903  35.2648553  26.0292753  72.0128903
  34.9768553  26.7432753  72.1588903  46.5368553  28.9862753  70.5658903
  47.0208553  29.7042753  70.6638903  46.9308553  28.5592753  69.9148903
  46.6668553  29.0292753  70.4838903  40.8328553  31.8312753  71.7428903
  41.1868553  31.6532753  72.5198903  40.3968553  31.1022753  71.5438903
  40.8208553  31.6972753  71.8288903  41.8048553  22.5782753  64.3808903
  42.2848553  23.2772753  64.5888903  42.1778553  21.9312753  64.8318903
  41.9308553  22.5862753  64.4778903  48.9658553  29.6172753  60.6358903
  49.3218553  29.2672753  61.3508903  48.9578553  28.9562753  60.0658903
  49.0178553  29.4672753  60.6568903  45.0108553  32.6832753  64.4798903
  44.4078553  32.3872753  63.9228903  45.5558553  33.1352753  63.9708903
  45.0018553  32.7062753  64.3218903  45.0238553  29.5342753  63.8798903
  44.2268553  29.7582753  64.1538903  45.2818553  28.9402753  64.4648903
  44.9438553  29.4792753  64.0068903  38.5868553  18.0892753  56.3158903
  38.6838553  17.9822753  57.1768903  37.8788553  18.5952753  56.2508903
  38.4968553  18.1482753  56.4338903  41.2078553  33.8622753  56.7298903
  41.8298553  34.0252753  57.3198903  41.2438553  34.5532753  56.1978903
  41.3048553  33.9882753  56.7388903  48.2838553  27.5322753  68.7258903
  48.3388553  27.6572753  67.8638903  49.0368553  27.8522753  69.0278903
  48.4028553  27.5972753  68.6428903  44.4748553  32.8812753  73.0028903
  44.6388553  33.1642753  73.8118903  44.7378553  33.5422753  72.4978903
  44.5378553  33.0212753  73.0478903  49.3158553  17.8302753  71.7128903
  48.6788553  17.4302753  71.2708903  49.3418553  17.3992753  72.4708903
  49.2258553  17.7082753  71.7588903  44.0148553  27.3382753  68.3258903
  43.8598553  27.9482753  68.9298903  44.5488553  26.7802753  68.7318903
  44.0708553  27.3462753  68.4748903  32.7058553  18.0572753  58.5268903
  32.8348553  17.3492753  58.0348903  32.3388553  17.7392753  59.2518903
  32.6708553  17.9052753  58.5618903  42.3988553  25.7382753  58.9838903
  42.4578553  26.3882753  59.5628903  42.2098553  25.0422753  59.4748903
  42.3798553  25.7312753  59.1418903  47.6248553  30.0672753  64.8528903
  47.1458553  30.3652753  64.1868903  47.2688553  29.2912753  65.0308903
  47.5018553  29.9962753  64.7808903  36.8948553  20.2552753  55.4958903
  36.3838553  20.3082753  54.7898903  37.6788553  20.4952753  55.1998903
  36.9348553  20.2982753  55.3478903  51.3168553  34.2332753  56.7928903
  52.0108553  33.7662753  56.5448903  50.7778553  33.6352753  57.1298903
  51.3398553  34.0752753  56.8058903  48.5558553  27.0092753  65.9718903
  48.5488553  26.2332753  66.3698903  47.7148553  27.2432753  65.9648903
  48.4308553  26.9292753  66.0298903  38.0458553  25.4212753  54.6068903
  37.4358553  25.0162753  55.0808903  37.6598553  25.5392753  53.8338903
  37.8988553  25.3782753  54.5628903  34.8648553  28.5302753  70.0088903
  34.4438553  28.0122753  69.4478903  34.5128553  29.3162753  69.8658903
  34.7508553  28.5702753  69.9048903  49.8118553  27.0802753  63.4088903
  49.5258553  27.4812753  64.1288903  50.6718553  27.0182753  63.5358903
  49.8968553  27.1302753  63.5338903  39.5008553  23.8822753  57.3168903
  39.7728553  24.7082753  57.3838903  38.6378553  23.9572753  57.2208903
  39.4138553  24.0152753  57.3118903  47.4738553  21.0042753  71.9488903
  46.9488553  21.4632753  72.4728903  47.1128553  20.2092753  71.9428903
  47.3428553  20.9542753  72.0248903  32.9808553  19.8522753  63.8528903
  33.0248553  20.1962753  63.0518903  33.7358553  20.0892753  64.2198903
  33.0988553  19.9382753  63.7888903  50.9428553  32.7132753  63.9378903
  51.2328553  32.9702753  63.1568903  51.6378553  32.8092753  64.4568903
  51.0888553  32.7652753  63.8988903  45.9658553  24.5732753  72.0248903
  46.0388553  24.6772753  72.8878903  45.3318553  25.1312753  71.8038903
  45.8828553  24.6712753  72.1198903  48.2338553  24.8922753  70.3898903
  48.5528553  25.6782753  70.5928903  47.8638553  24.6222753  71.1328903
  48.2268553  24.9682753  70.5298903  47.5478553  31.3162753  55.9198903
  47.8818553  30.5102753  55.9548903  46.7928553  31.2442753  56.3498903
  47.4858553  31.1862753  55.9888903  48.0298553  23.1502753  61.5788903
  47.2848553  22.8272753  61.8968903  48.0318553  23.9762753  61.8588903
  47.9198553  23.2242753  61.6668903  50.9318553  25.4342753  73.1248903
  50.8798553  25.0932753  72.3238903  51.6688553  25.9012753  73.1028903
  51.0328553  25.4532753  73.0028903  50.4698553  29.1102753  69.3308903
  51.0978553  28.5612753  69.0748903  50.4088553  29.6752753  68.6688903
  50.5538553  29.1132753  69.1948903  44.9218553  29.1912753  55.3228903
  45.6058553  28.6772753  55.1538903  44.5048553  29.2372753  54.5578903
  44.9608553  29.1222753  55.1848903  37.5828553  29.2912753  70.0248903
  36.7768553  29.0012753  70.1918903  37.4938553  30.1592753  70.0308903
  37.4508553  29.3762753  70.0498903  46.9418553  19.4802753  69.0398903
  47.6858553  19.9322753  68.9768903  46.3758553  19.9502753  68.5708903
  46.9688553  19.6172753  68.9618903  42.1198553  26.7642753  66.1178903
  42.5958553  27.1382753  66.7458903  41.2968553  26.8982753  66.3768903
  42.0688553  26.8392753  66.2488903  38.8298553  22.3672753  68.8588903
  38.9908553  21.6232753  69.2858903  38.7848553  22.1182753  68.0238903
  38.8468553  22.2202753  68.7988903  48.2268553  17.4602753  66.7098903
  47.9468553  18.2852753  66.6658903  48.9428553  17.5132753  67.2058903
  48.2918553  17.5902753  66.7768903  40.5818553  18.1752753  68.7388903
  41.2868553  18.4952753  68.3368903  40.8228553  17.3682753  68.9658903
  40.7208553  18.1032753  68.7128903  43.8758553  29.0192753  71.7238903
  44.6328553  29.3052753  71.3978903  43.3288553  29.0712753  71.0458903
  43.9068553  29.0692753  71.5748903  47.7848553  31.5692753  70.2278903
  48.1308553  31.8392753  70.9818903  48.0788553  32.1512753  69.6478903
  47.8798553  31.6952753  70.2538903  49.6478553  23.7152753  55.5668903
  50.0258553  24.3922753  55.1668903  48.8058553  23.9392753  55.5978903
  49.5788553  23.8482753  55.5118903  41.1608553  27.1612753  54.6498903
  40.3558553  26.9842753  54.3648903  41.1278553  28.0122753  54.8418903
  41.0368553  27.2602753  54.6368903  45.1068553  22.3302753  70.3918903
  44.4588553  22.8002753  70.7398903  45.6718553  22.2412753  71.0508903
  45.0948553  22.3862753  70.5408903  44.7948553  23.8672753  66.6898903
  45.0968553  24.2872753  67.3928903  44.8308553  23.0272753  66.9218903
  44.8448553  23.8052753  66.8278903  42.2198553  34.0342753  70.6148903
  42.6978553  33.4342753  70.1988903  41.8688553  33.5912753  71.2798903
  42.2388553  33.8802753  70.6518903  47.3428553  23.3142753  58.9418903
  47.5498553  23.1132753  59.7658903  48.0988553  23.5822753  58.5998903
  47.4848553  23.3242753  59.0128903  40.6378553  18.2132753  64.8468903
  39.8118553  18.0642753  65.0838903  40.5978553  18.2482753  63.9758903
  40.5098553  18.1962753  64.7528903  48.3648553  19.3972753  60.4158903
  47.6508553  18.9262753  60.5868903  48.2028553  19.7382753  59.6298903
  48.2358553  19.3782753  60.3248903  48.8078553  27.3412753  58.7958903
  49.2838553  26.6122753  58.7478903  47.9868553  27.0552753  58.7198903
  48.7568553  27.1912753  58.7768903  42.2788553  29.2532753  69.6348903
  41.4838553  29.1892753  69.9858903  42.3498553  30.1002753  69.4398903
  42.1718553  29.3682753  69.6578903  33.2028553  18.6112753  70.8818903
  33.0628553  19.4062753  70.5508903  32.4168553  18.3682753  71.1708903
  33.0658553  18.6932753  70.8758903  38.1088553  35.4602753  64.9518903
  38.1198553  35.5192753  65.8218903  37.6838553  34.7132753  64.8018903
  38.0478553  35.3582753  65.0578903  45.0238553  28.5082753  61.1508903
  45.0998553  28.8492753  61.9498903  45.1928553  27.6612753  61.2718903
  45.0598553  28.4332753  61.2868903  42.5458553  27.7822753  60.7158903
  42.2478553  27.4672753  61.4728903  43.2408553  28.2552753  60.9508903
  42.6048553  27.8052753  60.8628903  42.7678553  31.9002753  68.7428903
  43.4548553  31.7862753  69.2678903  42.9018553  32.6912753  68.3988903
  42.8888553  32.0002753  68.7698903  50.9438553  24.5092753  70.5538903
  50.0888553  24.3872753  70.6798903  51.0968553  24.1142753  69.7908903
  50.8398553  24.4322753  70.4598903  45.4568553  25.1742753  69.1298903
  45.2018553  24.4552753  69.5518903  46.2778553  25.2902753  69.3998903
  45.5408553  25.0852753  69.2318903  34.8728553  34.9582753  70.3938903
  34.2188553  34.3892753  70.4918903  34.4978553  35.7312753  70.5448903
  34.7208553  34.9882753  70.4308903  43.3908553  26.3642753  72.3168903
  43.7138553  27.0502753  71.8848903  42.6868553  26.6872753  72.7188903
  43.3338553  26.5132753  72.3118903  46.4748553  34.7382753  63.2458903
  46.0238553  35.3812753  63.6248903  47.1828553  34.6592753  63.7508903
  46.5128553  34.8212753  63.3768903  48.5528553  32.4212753  72.7558903
  49.3288553  32.0312753  72.8388903  48.0838553  32.0852753  73.4108903
  48.5978553  32.3142753  72.8648903  36.2438553  23.3662753  68.5228903
  36.6188553  23.9852753  68.0358903  36.9178553  22.8922753  68.8078903
  36.3988553  23.3882753  68.4928903  34.0188553  21.8142753  67.7978903
  34.0958553  21.6452753  66.9448903  34.7648553  22.2202753  67.9948903
  34.1398553  21.8492753  67.7008903  49.5778553  24.4542753  58.2378903
  49.6808553  24.3962753  57.3738903  50.3188553  24.1222753  58.5558903
  49.7028553  24.3972753  58.1568903  43.4978553  31.4192753  59.3448903
  43.2928553  32.2522753  59.1858903  42.7228553  31.0372753  59.4668903
  43.3528553  31.4862753  59.3398903  48.6798553  24.6002753  67.5938903
  48.6778553  23.7372753  67.7178903  48.7468553  24.9242753  68.4008903
  48.6898553  24.5202753  67.7308903  34.8718553  22.9762753  54.6398903
  34.1998553  22.9902753  55.1958903  34.9668553  22.1282753  54.4558903
  34.7868553  22.8532753  54.6948903  44.5588553  19.4002753  71.3758903
  44.6508553  20.1122753  71.8698903  43.9218553  18.9552753  71.7728903
  44.4778553  19.4392753  71.5078903  43.5528553  19.5902753  62.2298903
  42.8528553  20.1082753  62.1738903  43.5908553  19.2102753  61.4458903
  43.4548553  19.6112753  62.1058903  47.1508553  20.1062753  65.0298903
  48.0058553  20.2052753  65.1748903  46.7818553  20.6592753  65.5948903
  47.2228553  20.2032753  65.1348903  38.1788553  26.3322753  69.4068903
  37.7828553  27.1062753  69.4818903  37.7728553  25.9592753  68.7308903
  38.0608553  26.3912753  69.3178903  47.4548553  25.3862753  63.5208903
  48.1208553  25.9272753  63.6808903  47.1098553  25.6972753  62.7818903
  47.5018553  25.5122753  63.4358903  47.7678553  33.4522753  59.3278903
  47.5938553  32.7982753  59.8778903  48.4808553  33.1812753  58.9048903
  47.8478553  33.3152753  59.3468903  38.6078553  19.3092753  66.8568903
  37.7438553  19.3932753  66.9368903  38.8278553  18.7952753  67.5258903
  38.5128553  19.2462753  66.9678903  50.6258553  17.9442753  68.1858903
  50.5738553  17.9002753  69.0558903  51.3128553  17.4412753  67.9958903
  50.7198553  17.8642753  68.2858903  42.7108553  20.0572753  65.2308903
  41.9738553  19.6032753  65.3438903  43.2818553  19.6552753  65.7538903
  42.6858553  19.9302753  65.3248903  45.4428553  30.9052753  67.0188903
  45.6488553  31.2062753  67.8108903  45.3818553  31.6272753  66.5338903
  45.4638553  31.0562753  67.0638903  40.2138553  24.3862753  70.4348903
  39.8918553  23.8102753  69.8648903  39.8548553  25.1412753  70.1888903
  40.1138553  24.4122753  70.3148903  41.0098553  17.6382753  55.0618903
  41.0878553  17.8852753  54.2288903  40.2668553  18.0152753  55.3198903
  40.9118553  17.7302753  54.9768903  50.2548553  29.5442753  66.4768903
  50.2228553  28.6822753  66.3418903  49.5618553  29.8462753  66.0428903
  50.1478553  29.4612753  66.3928903  38.6488553  34.7422753  70.6828903
  38.6898553  34.8682753  71.5458903  39.2998553  34.1822753  70.5268903
  38.7508553  34.6782753  70.7878903  48.3598553  32.8042753  65.2738903
  48.8868553  32.7212753  64.5828903  47.9688553  32.0262753  65.3278903
  48.3798553  32.6772753  65.1798903  35.8278553  19.3922753  67.5048903
  35.4848553  18.6252753  67.2708903  35.1328553  19.9162753  67.5688903
  35.6748553  19.3562753  67.4798903  44.8738553  18.2482753  64.4818903
  45.5438553  18.7922753  64.6088903  44.3708553  18.6722753  63.9088903
  44.8988553  18.3912753  64.4158903  36.2418553  33.1252753  72.0428903
  36.8368553  33.5562753  72.5148903  35.8778553  33.7492753  71.5538903
  36.2758553  33.2812753  72.0398903  44.2328553  24.0562753  61.9748903
  44.7838553  23.4492753  62.2748903  43.8078553  24.3192753  62.6898903
  44.2518553  24.0052753  62.1238903  34.1688553  31.1142753  68.9718903
  33.5948553  31.5302753  69.4808903  34.9018553  31.5792753  69.0668903
  34.1928553  31.2442753  69.0608903  46.2028553  25.8872753  58.5368903
  46.2708553  25.0372753  58.7178903  45.3798553  25.9732753  58.2588903
  46.0908553  25.7742753  58.5228903  40.1218553  26.7782753  57.4748903
  40.2218553  26.9172753  56.6198903  40.9398553  26.7182753  57.7708903
  40.2568553  26.7892753  57.3918903  49.2818553  34.8422753  54.9548903
  49.9188553  34.7082753  55.5358903  48.9408553  34.0482753  54.8378903
  49.3258553  34.7052753  55.0228903  49.4768553  27.2602753  71.6878903
  50.1108553  27.0902753  72.2618903  49.8938553  27.6632753  71.0358903
  49.6318553  27.2952753  71.6768903  45.3568553  31.1072753  57.2768903
  45.1058553  30.9792753  58.1028903  45.0398553  30.4122753  56.8558903
  45.2728553  30.9862753  57.3368903  50.1018553  21.8242753  72.4258903
  49.9058553  22.4682753  72.9808903  49.3798553  21.3342753  72.4178903
  49.9668553  21.8472753  72.5068903  50.0008553  22.7652753  65.3968903
  49.1678553  23.0152753  65.3248903  49.9448553  21.9252753  65.6258903
  49.8698553  22.6782753  65.4198903  39.2608553  19.7532753  70.5908903
  39.4948553  19.1772753  69.9778903  38.4188553  19.5722753  70.7318903
  39.1708553  19.6412753  70.5208903  46.8878553  27.3712753  73.0428903
  47.7588553  27.3352753  73.0068903  46.6688553  27.7912753  72.3108903
  46.9848553  27.4272753  72.9298903  42.2428553  29.3152753  56.7068903
  42.9598553  28.9682753  56.3508903  42.2088553  30.1152753  56.3588903
  42.3438553  29.3822753  56.6028903  34.2138553  35.4402753  67.8048903
  34.7068553  35.3842753  68.5228903  34.4018553  34.7072753  67.3698903
  34.3148553  35.3232753  67.8468903  43.6518553  17.9562753  40.9456493
  43.4068553  18.4442753  40.2656493  44.5148553  17.8832753  40.8456493
  43.7428553  18.0172753  40.8306493  43.4608553  24.8722753  45.6166493
  42.9368553  25.4682753  45.9796493  43.8578553  24.5042753  46.3006493
  43.4418553  24.9062753  45.7716493  33.3298553  29.0122753  41.0726493
  32.8888553  29.1302753  41.8156493  33.0468553  28.2372753  40.7876493
  33.2228553  28.9152753  41.1406493  49.6048553  32.3132753  38.5876493
  50.3058553  31.7942753  38.5836493  49.0178553  31.8682753  38.1186493
  49.6218553  32.1702753  38.5176493  33.0728553  22.8042753  37.5796493
  32.2948553  22.9662753  37.2196493  33.1118553  21.9332753  37.6016493
  32.9638553  22.6992753  37.5296493  36.2118553  28.0672753  36.2516493
  35.8198553  27.6962753  35.5656493  36.1318553  27.4692753  36.8806493
  36.1418553  27.9242753  36.2426493  46.1318553  25.9392753  42.2926493
  46.2118553  25.9432753  41.4236493  45.5478553  25.3072753  42.4416493
  46.0568553  25.8462753  42.1866493  35.8388553  29.7082753  40.1516493
  36.4468553  29.5382753  40.7546493  35.0878553  29.5682753  40.5726493
  35.8178553  29.6622753  40.3026493  40.1208553  19.0432753  40.1006493
  40.0508553  19.7202753  39.5546493  40.8618553  18.6552753  39.8516493
  40.2198553  19.0862753  39.9826493  34.7158553  26.2682753  41.5296493
  34.2538553  25.8762753  40.9026493  35.4158553  25.7552753  41.6216493
  34.7508553  26.1352753  41.4506493  39.2238553  21.8782753  46.8766493
  39.9018553  21.8962753  46.3276493  39.1788553  21.0422753  47.1216493
  39.3168553  21.7572753  46.8316493  36.7168553  24.3682753  41.5526493
  37.5338553  24.1812753  41.7956493  36.2398553  23.7542753  41.9486493
  36.7668553  24.2502753  41.6476493  40.9208553  30.3492753  44.1626493
  41.2688553  29.5502753  44.1926493  41.5858553  30.8532753  43.9076493
  41.0708553  30.3052753  44.1296493  40.9778553  29.7982753  40.3736493
  41.3088553  29.1542753  40.8596493  41.2178553  29.5872753  39.5626493
  41.0618553  29.6722753  40.3256493  42.9458553  23.9292753  51.7126493
  42.0978553  23.8302753  51.5346493  42.9748553  24.6742753  52.1666493
  42.8248553  24.0252753  51.7536493  37.3138553  19.4622753  40.8186493
  37.0178553  19.9632753  40.1686493  38.1808553  19.5402753  40.7616493
  37.3978553  19.5482753  40.7146493  47.5038553  16.8892753  50.8266493
  47.3458553  17.6582753  50.4446493  46.7318553  16.6692753  51.1706493
  47.3658553  16.9702753  50.8216493  40.2928553  18.6042753  43.0416493
  40.3658553  19.4642753  43.1706493  40.2548553  18.5292753  42.1736493
  40.2978553  18.7202753  42.9326493  44.9658553  21.5302753  35.3406493
  44.5158553  22.2112753  35.6476493  45.0798553  21.0262753  36.0436493
  44.9168553  21.5562753  35.4896493  33.1718553  24.0292753  44.5426493
  32.9158553  24.8602753  44.4676493  32.5078553  23.6462753  44.9596493
  33.0358553  24.0952753  44.5936493  38.9218553  31.5832753  39.9226493
  38.3428553  31.3082753  40.5146493  39.5458553  30.9742753  39.9476493
  38.9288553  31.4532753  40.0136493  45.0648553  33.8712753  37.4446493
  45.7918553  34.3432753  37.5466493  45.2938553  33.0772753  37.7246493
  45.2068553  33.8242753  37.5016493  43.2328553  34.2632753  39.4346493
  43.4468553  34.7902753  40.0966493  43.9998553  34.0892753  39.0556493
  43.3778553  34.3152753  39.4766493  36.2008553  18.8462753  45.0336493
  35.6798553  18.2182753  44.7256493  36.7918553  18.4092753  45.5046493
  36.2118553  18.6882753  45.0576493  39.5068553  20.9792753  54.3316493
  39.6238553  20.5252753  53.5956493  39.7948553  21.7772753  54.1286493
  39.5668553  21.0302753  54.1926493  50.3598553  21.5032753  41.6356493
  50.0138553  22.1812753  42.0616493  49.7238553  20.9052753  41.6516493
  50.2148553  21.5152753  41.7006493  45.6718553  34.2732753  47.7396493
  46.4158553  34.7292753  47.7296493  45.5508553  34.0592753  46.9026493
  45.7638553  34.3092753  47.6146493  35.2398553  20.5762753  53.3156493
  34.4618553  20.1862753  53.2436493  35.7308553  20.1642753  52.7246493
  35.1968553  20.4572753  53.2176493  35.4448553  30.8962753  43.8736493
  35.8678553  30.5402753  43.1996493  35.7688553  30.4742753  44.5656493
  35.5548553  30.7812753  43.8766493  38.6758553  33.7482753  43.1696493
  39.5198553  33.8522753  42.9746493  38.3788553  34.5662753  43.2376493
  38.7568553  33.8842753  43.1506493  41.8888553  18.2192753  52.4836493
  42.0668553  17.4102753  52.2086493  41.7458553  18.6602753  51.7446493
  41.8938553  18.1652753  52.3336493  42.4828553  23.1452753  41.2566493
  42.7698553  22.9132753  40.4666493  43.2148553  23.2242753  41.7256493
  42.6328553  23.1222753  41.2096493  43.2048553  23.4842753  36.3776493
  43.4858553  24.2722753  36.6266493  42.4288553  23.6492753  36.0146493
  43.1318553  23.6252753  36.3606493  47.2458553  35.4582753  37.8446493
  47.9108553  35.3102753  37.2996493  47.6058553  35.3752753  38.6346493
  47.3978553  35.4242753  37.8806493  50.0348553  19.8262753  47.0046493
  50.7918553  19.8982753  46.5766493  50.0978553  19.0532753  47.4036493
  50.1558553  19.7232753  46.9996493  32.5878553  21.1242753  50.9016493
  32.5838553  21.7112753  51.5476493  33.1818553  21.4362753  50.3446493
  32.6748553  21.2572753  50.9146493  44.9258553  31.4582753  51.4436493
  44.8918553  31.8402753  52.2276493  45.7798553  31.4162753  51.2726493
  45.0468553  31.5082753  51.5346493  42.0638553  31.6552753  36.1936493
  41.8828553  32.2002753  36.8506493  42.8298553  31.9452753  35.8926493
  42.1498553  31.7792753  36.2466493  45.5708553  19.5512753  37.2476493
  46.1108553  18.8692753  37.3236493  45.6328553  19.9492753  38.0216493
  45.6598553  19.5092753  37.3736493  33.5248553  20.7192753  39.8166493
  33.4108553  19.8552753  39.8476493  33.0498553  21.0132753  40.4866493
  33.4378553  20.6352753  39.9196493  42.8288553  21.9272753  38.5616493
  42.3208553  21.2652753  38.3076493  42.8808553  22.4312753  37.8516493
  42.7618553  21.9042753  38.4196493  43.3778553  34.6222753  48.9416493
  44.1458553  34.5422753  48.5356493  42.7948553  34.5012753  48.3036493
  43.4048553  34.5922753  48.7876493  42.8288553  18.8682753  38.4526493
  42.3738553  18.4662753  37.8266493  43.6018553  19.0232753  38.0776493
  42.8758553  18.8322753  38.3046493  49.6548553  35.2252753  41.8426493
  49.1998553  35.9422753  42.0436493  49.0408553  34.6542753  41.6006493
  49.4968553  35.2472753  41.8366493  41.4268553  21.2352753  42.9746493
  41.5008553  21.8032753  42.3166493  41.5478553  21.7272753  43.6846493
  41.4548553  21.3922753  42.9826493  46.6518553  31.0702753  41.3866493
  47.3528553  30.5882753  41.5756493  45.9918553  30.5012753  41.4316493
  46.6578553  30.9152753  41.4206493  36.0348553  17.0582753  41.3226493
  36.5708553  17.7462753  41.3126493  36.0378553  16.7842753  40.4946493
  36.1138553  17.1192753  41.1986493  38.9908553  27.4912753  45.3476493
  39.1628553  27.2812753  46.1766493  38.3358553  26.9572753  45.1316493
  38.9198553  27.3812753  45.4386493  45.2188553  21.4052753  48.8626493
  45.1238553  21.7242753  49.6686493  44.6258553  20.7662753  48.8246493
  45.1168553  21.3572753  48.9766493  45.9178553  28.1242753  47.0676493
  45.4038553  27.7122753  47.6386493  45.7918553  28.9682753  47.2486493
  45.8238553  28.1882753  47.1786493  46.4748553  17.3492753  41.6986493
  46.5238553  17.0312753  42.5096493  46.7978553  16.7052753  41.2056493
  46.5298553  17.2072753  41.7456493  48.9388553  21.5852753  50.0066493
  49.7108553  21.3602753  50.3436493  48.4638553  21.8022753  50.7066493
  48.9828553  21.5842753  50.1596493  36.4828553  20.8682753  42.9766493
  36.7548553  20.4382753  42.2686493  36.3068553  20.2322753  43.5476493
  36.4968553  20.7112753  42.9566493  49.1708553  28.5632753  37.1946493
  49.2898553  28.2762753  38.0096493  49.9778553  28.5842753  36.8646493
  49.3068553  28.5242753  37.2666493  36.3068553  28.2952753  42.5256493
  37.1578553  28.2152753  42.3526493  35.9498553  27.6132753  42.1136493
  36.3798553  28.1822753  42.4386493  35.0738553  35.0202753  43.7626493
  34.4008553  34.5222753  43.5176493  35.4768553  35.2052753  43.0116493
  35.0338553  34.9742753  43.6156493  34.6238553  21.9702753  46.0586493
  35.4668553  22.1902753  46.0156493  34.2348553  22.5432753  45.5276493
  34.6908553  22.0872753  45.9736493  51.4048553  33.0722753  51.4486493
  50.7228553  33.3822753  51.0016493  51.0358553  32.6142753  52.0936493
  51.2488553  33.0502753  51.4776493  47.0658553  25.1002753  36.7796493
  46.8458553  25.8312753  36.3576493  46.6178553  25.1512753  37.5266493
  46.9668553  25.2152753  36.8276493  38.6748553  28.3022753  40.7606493
  39.3878553  28.7972753  40.8506493  38.8968553  27.7352753  40.1346493
  38.8128553  28.2912753  40.6816493  51.2528553  19.9612753  36.2326493
  50.5908553  19.3932753  36.2556493  51.0598553  20.4732753  35.5526493
  51.1268553  19.9532753  36.1356493  32.8308553  29.9452753  44.0806493
  32.1638553  30.4332753  44.3566493  33.5108553  30.4902753  44.1096493
  32.8328553  30.0972753  44.1256493  40.4778553  23.6552753  54.1766493
  39.9938553  24.2322753  54.6186493  40.4498553  23.9502753  53.3556493
  40.4018553  23.7842753  54.1206493  51.5758553  24.3392753  48.7886493
  51.7908553  23.5392753  48.5126493  50.7258553  24.3992753  48.5996493
  51.4818553  24.2302753  48.7196493  49.2548553  19.5192753  38.5116493
  50.0008553  19.1122753  38.7106493  49.5178553  20.2342753  38.0866493
  49.4038553  19.5652753  38.4786493  43.1978553  32.0052753  43.0876493
  42.6748553  32.6392753  42.7946493  43.5078553  31.6412753  42.3586493
  43.1658553  32.0452753  42.9366493  45.7088553  21.8072753  43.5846493
  46.0528553  21.9592753  44.3716493  45.2558553  21.0692753  43.6976493
  45.6928553  21.7202753  43.7176493  33.8388553  27.4632753  44.3916493
  34.2698553  27.3342753  43.6446493  33.6338553  28.3112753  44.3656493
  33.8718553  27.5692753  44.2776493  40.1848553  21.0272753  38.0416493
  40.1828553  20.9102753  37.1766493  40.0038553  21.8752753  38.1336493
  40.1578553  21.1352753  37.9276493  49.2388553  33.4542753  49.5386493
  48.5678553  33.9682753  49.7566493  49.3018553  33.5542753  48.6746493
  49.1488553  33.5452753  49.4436493  37.9228553  30.9792753  42.6736493
  38.0488553  31.8222753  42.8606493  38.5908553  30.5802753  43.0696493
  38.0408553  31.0452753  42.7596493  36.0528553  24.4622753  52.5356493
  35.5168553  23.9562753  53.0036493  36.0728553  24.0722753  51.7556493
  35.9758553  24.3292753  52.4896493  36.5378553  23.8592753  37.6756493
  36.4098553  23.4112753  38.4136493  35.9558553  23.5172753  37.1236493
  36.4328553  23.7422753  37.7036493  36.7048553  25.6892753  44.2746493
  35.9238553  25.6302753  43.8916493  36.7768553  24.9372753  44.7116493
  36.5998553  25.5702753  44.2826493  37.1348553  25.4262753  47.7426493
  37.1598553  24.7512753  47.1916493  36.4888553  25.9222753  47.4306493
  37.0438553  25.3992753  47.6156493  47.0298553  23.1392753  46.1386493
  46.3678553  23.4672753  46.6016493  47.2168553  23.7732753  45.5696493
  46.9598553  23.2812753  46.1226493  41.2348553  34.2032753  47.1346493
  40.9578553  33.5622753  46.6116493  41.0268553  34.9292753  46.6966493
  41.1638553  34.2162753  46.9926493  43.6748553  19.0452753  49.5676493
  43.8238553  18.2202753  49.3246493  44.0538553  19.1002753  50.3516493
  43.7528553  18.9312753  49.6476493  45.2228553  21.1082753  39.6496493
  45.7128553  21.8252753  39.5726493  44.4328553  21.3692753  39.3866493
  45.1788553  21.2522753  39.5996493  34.9338553  26.7812753  53.3016493
  34.8968553  27.2822753  52.5876493  35.2648553  26.0292753  53.0066493
  34.9768553  26.7432753  53.1526493  46.5368553  28.9862753  51.5596493
  47.0208553  29.7042753  51.6576493  46.9308553  28.5592753  50.9086493
  46.6668553  29.0292753  51.4776493  41.8048553  22.5782753  45.3746493
  42.2848553  23.2772753  45.5826493  42.1778553  21.9312753  45.8256493
  41.9308553  22.5862753  45.4716493  43.9938553  25.7472753  37.6486493
  43.9858553  26.4692753  37.1586493  43.3548553  25.8822753  38.2256493
  43.8988553  25.8742753  37.6616493  48.9658553  29.6172753  41.6296493
  49.3218553  29.2672753  42.3446493  48.9578553  28.9562753  41.0596493
  49.0178553  29.4672753  41.6506493  45.0108553  32.6832753  45.4736493
  44.4078553  32.3872753  44.9166493  45.5558553  33.1352753  44.9646493
  45.0018553  32.7062753  45.3156493  45.0238553  29.5342753  44.8736493
  44.2268553  29.7582753  45.1476493  45.2818553  28.9402753  45.4586493
  44.9438553  29.4792753  45.0006493  38.9158553  34.3462753  39.3216493
  38.7688553  33.5702753  39.6926493  39.6048553  34.1992753  38.8066493
  38.9958553  34.2092753  39.3006493  38.5868553  18.0892753  37.3096493
  38.6838553  17.9822753  38.1706493  37.8788553  18.5952753  37.2446493
  38.4968553  18.1482753  37.4276493  41.2078553  33.8622753  37.7236493
  41.8298553  34.0252753  38.3136493  41.2438553  34.5532753  37.1916493
  41.3048553  33.9882753  37.7326493  44.4748553  32.8812753  53.9966493
  44.6388553  33.1642753  54.8056493  44.7378553  33.5422753  53.4916493
  44.5378553  33.0212753  54.0416493  49.3158553  17.8302753  52.7066493
  48.6788553  17.4302753  52.2646493  49.3418553  17.3992753  53.4646493
  49.2258553  17.7082753  52.7526493  35.7088553  26.3962753  38.5526493
  36.0328553  25.6172753  38.3306493  36.3548553  26.7642753  39.0076493
  35.8518553  26.3352753  38.5866493  32.7058553  18.0572753  39.5206493
  32.8348553  17.3492753  39.0286493  32.3388553  17.7392753  40.2456493
  32.6708553  17.9052753  39.5556493  42.3988553  25.7382753  39.9776493
  42.4578553  26.3882753  40.5566493  42.2098553  25.0422753  40.4686493
  42.3798553  25.7312753  40.1356493  47.6248553  30.0672753  45.8466493
  47.1458553  30.3652753  45.1806493  47.2688553  29.2912753  46.0246493
  47.5018553  29.9962753  45.7746493  36.8948553  20.2552753  36.4896493
  36.3838553  20.3082753  35.7836493  37.6788553  20.4952753  36.1936493
  36.9348553  20.2982753  36.3416493  41.6218553  27.7852753  44.4086493
  40.7748553  27.5912753  44.4896493  41.9458553  27.6202753  45.2016493
  41.5438553  27.7322753  44.5376493  38.3738553  34.5152753  35.2946493
  38.8128553  33.8182753  35.5826493  38.5808553  35.1392753  35.8676493
  38.4698553  34.5042753  35.4216493  35.4698553  27.4782753  46.7246493
  36.1918553  27.9662753  46.6876493  35.1998553  27.4482753  45.8956493
  35.5368553  27.5462753  46.5966493  38.6998553  22.6492753  43.4596493
  39.5458553  22.4592753  43.5576493  38.3298553  21.8722753  43.3216493
  38.7698553  22.5062753  43.4536493  51.3168553  34.2332753  37.7866493
  52.0108553  33.7662753  37.5386493  50.7778553  33.6352753  38.1236493
  51.3398553  34.0752753  37.7996493  33.5208553  23.9872753  40.1146493
  34.0098553  23.6952753  40.7756493  33.6498553  23.3942753  39.4876493
  33.6118553  23.8562753  40.1196493  48.5558553  27.0092753  46.9656493
  48.5488553  26.2332753  47.3636493  47.7148553  27.2432753  46.9586493
  48.4308553  26.9292753  47.0236493  38.0458553  25.4212753  35.6006493
  37.4358553  25.0162753  36.0746493  37.6598553  25.5392753  34.8276493
  37.8988553  25.3782753  35.5566493  49.8118553  27.0802753  44.4026493
  49.5258553  27.4812753  45.1226493  50.6718553  27.0182753  44.5296493
  49.8968553  27.1302753  44.5276493  39.5008553  23.8822753  38.3106493
  39.7728553  24.7082753  38.3776493  38.6378553  23.9572753  38.2146493
  39.4138553  24.0152753  38.3056493  47.4738553  21.0042753  52.9426493
  46.9488553  21.4632753  53.4666493  47.1128553  20.2092753  52.9366493
  47.3428553  20.9542753  53.0186493  32.9808553  19.8522753  44.8466493
  33.0248553  20.1962753  44.0456493  33.7358553  20.0892753  45.2136493
  33.0988553  19.9382753  44.7826493  50.9428553  32.7132753  44.9316493
  51.2328553  32.9702753  44.1506493  51.6378553  32.8092753  45.4506493
  51.0888553  32.7652753  44.8926493  45.9658553  24.5732753  53.0186493
  46.0388553  24.6772753  53.8816493  45.3318553  25.1312753  52.7976493
  45.8828553  24.6712753  53.1136493  48.2338553  24.8922753  51.3836493
  48.5528553  25.6782753  51.5866493  47.8638553  24.6222753  52.1266493
  48.2268553  24.9682753  51.5236493  47.5478553  31.3162753  36.9136493
  47.8818553  30.5102753  36.9486493  46.7928553  31.2442753  37.3436493
  47.4858553  31.1862753  36.9826493  48.0298553  23.1502753  42.5726493
  47.2848553  22.8272753  42.8906493  48.0318553  23.9762753  42.8526493
  47.9198553  23.2242753  42.6606493  50.9318553  25.4342753  54.1186493
  50.8798553  25.0932753  53.3176493  51.6688553  25.9012753  54.0966493
  51.0328553  25.4532753  53.9966493  50.4698553  29.1102753  50.3246493
  51.0978553  28.5612753  50.0686493  50.4088553  29.6752753  49.6626493
  50.5538553  29.1132753  50.1886493  44.9218553  29.1912753  36.3166493
  45.6058553  28.6772753  36.1476493  44.5048553  29.2372753  35.5516493
  44.9608553  29.1222753  36.1786493  46.9418553  19.4802753  50.0336493
  47.6858553  19.9322753  49.9706493  46.3758553  19.9502753  49.5646493
  46.9688553  19.6172753  49.9556493  42.1198553  26.7642753  47.1116493
  42.5958553  27.1382753  47.7396493  41.2968553  26.8982753  47.3706493
  42.0688553  26.8392753  47.2426493  38.8298553  22.3672753  49.8526493
  38.9908553  21.6232753  50.2796493  38.7848553  22.1182753  49.0176493
  38.8468553  22.2202753  49.7926493  41.3838553  34.1572753  42.3396493
  41.9298553  34.8362753  42.3936493  41.0338553  34.2392753  41.5446493
  41.4128553  34.2702753  42.2296493  48.2268553  17.4602753  47.7036493
  47.9468553  18.2852753  47.6596493  48.9428553  17.5132753  48.1996493
  48.2918553  17.5902753  47.7706493  40.5818553  18.1752753  49.7326493
  41.2868553  18.4952753  49.3306493  40.8228553  17.3682753  49.9596493
  40.7208553  18.1032753  49.7066493  43.8758553  29.0192753  52.7176493
  44.6328553  29.3052753  52.3916493  43.3288553  29.0712753  52.0396493
  43.9068553  29.0692753  52.5686493  47.7848553  31.5692753  51.2216493
  48.1308553  31.8392753  51.9756493  48.0788553  32.1512753  50.6416493
  47.8798553  31.6952753  51.2476493  49.6478553  23.7152753  36.5606493
  50.0258553  24.3922753  36.1606493  48.8058553  23.9392753  36.5916493
  49.5788553  23.8482753  36.5056493  41.1608553  27.1612753  35.6436493
  40.3558553  26.9842753  35.3586493  41.1278553  28.0122753  35.8356493
  41.0368553  27.2602753  35.6306493  37.0908553  23.2282753  45.7936493
  37.5308553  23.1252753  45.0476493  37.6358553  22.9152753  46.3986493
  37.2358553  23.1672753  45.7726493  45.1068553  22.3302753  51.3856493
  44.4588553  22.8002753  51.7336493  45.6718553  22.2412753  52.0446493
  45.0948553  22.3862753  51.5346493  44.7948553  23.8672753  47.6836493
  45.0968553  24.2872753  48.3866493  44.8308553  23.0272753  47.9156493
  44.8448553  23.8052753  47.8216493  42.2198553  34.0342753  51.6086493
  42.6978553  33.4342753  51.1926493  41.8688553  33.5912753  52.2736493
  42.2388553  33.8802753  51.6456493  47.3428553  23.3142753  39.9356493
  47.5498553  23.1132753  40.7596493  48.0988553  23.5822753  39.5936493
  47.4848553  23.3242753  40.0066493  40.6378553  18.2132753  45.8406493
  39.8118553  18.0642753  46.0776493  40.5978553  18.2482753  44.9696493
  40.5098553  18.1962753  45.7466493  48.3648553  19.3972753  41.4096493
  47.6508553  18.9262753  41.5806493  48.2028553  19.7382753  40.6236493
  48.2358553  19.3782753  41.3186493  48.8078553  27.3412753  39.7896493
  49.2838553  26.6122753  39.7416493  47.9868553  27.0552753  39.7136493
  48.7568553  27.1912753  39.7706493  33.2028553  18.6112753  51.8756493
  33.0628553  19.4062753  51.5446493  32.4168553  18.3682753  52.1646493
  33.0658553  18.6932753  51.8696493  38.1088553  35.4602753  45.9456493
  38.1198553  35.5192753  46.8156493  37.6838553  34.7132753  45.7956493
  38.0478553  35.3582753  46.0516493  36.2668553  21.3552753  39.1006493
  36.3928553  21.0262753  38.3026493  35.4548553  21.1062753  39.2996493
  36.1658553  21.2702753  39.0126493  45.0238553  28.5082753  42.1446493
  45.0998553  28.8492753  42.9436493  45.1928553  27.6612753  42.2656493
  45.0598553  28.4332753  42.2806493  42.5458553  27.7822753  41.7096493
  42.2478553  27.4672753  42.4666493  43.2408553  28.2552753  41.9446493
  42.6048553  27.8052753  41.8566493  50.9438553  24.5092753  51.5476493
  50.0888553  24.3872753  51.6736493  51.0968553  24.1142753  50.7846493
  50.8398553  24.4322753  51.4536493  45.4568553  25.1742753  50.1236493
  45.2018553  24.4552753  50.5456493  46.2778553  25.2902753  50.3936493
  45.5408553  25.0852753  50.2256493  43.3908553  26.3642753  53.3106493
  43.7138553  27.0502753  52.8786493  42.6868553  26.6872753  53.7126493
  43.3338553  26.5132753  53.3056493  46.4748553  34.7382753  44.2396493
  46.0238553  35.3812753  44.6186493  47.1828553  34.6592753  44.7446493
  46.5128553  34.8212753  44.3706493  43.1758553  29.8282753  47.1696493
  42.4818553  30.2302753  47.5126493  43.8528553  30.2612753  47.5086493
  43.1728553  29.9512753  47.2706493  48.5528553  32.4212753  53.7496493
  49.3288553  32.0312753  53.8326493  48.0838553  32.0852753  54.4046493
  48.5978553  32.3142753  53.8586493  36.2438553  23.3662753  49.5166493
  36.6188553  23.9852753  49.0296493  36.9178553  22.8922753  49.8016493
  36.3988553  23.3882753  49.4866493  34.0188553  21.8142753  48.7916493
  34.0958553  21.6452753  47.9386493  34.7648553  22.2202753  48.9886493
  34.1398553  21.8492753  48.6946493  49.5778553  24.4542753  39.2316493
  49.6808553  24.3962753  38.3676493  50.3188553  24.1222753  39.5496493
  49.7028553  24.3972753  39.1506493  36.5728553  19.2242753  51.2026493
  36.4918553  18.3802753  51.4086493  36.2588553  19.2682753  50.3896493
  36.5148553  19.1062753  51.1126493  43.4978553  31.4192753  40.3386493
  43.2928553  32.2522753  40.1796493  42.7228553  31.0372753  40.4606493
  43.3528553  31.4862753  40.3336493  48.6798553  24.6002753  48.5876493
  48.6778553  23.7372753  48.7116493  48.7468553  24.9242753  49.3946493
  48.6898553  24.5202753  48.7246493  33.4158553  27.0402753  49.0156493
  33.7358553  27.2592753  48.2346493  33.3158553  26.1752753  48.9606493
  33.4478553  26.9452753  48.8926493  34.8718553  22.9762753  35.6336493
  34.1998553  22.9902753  36.1896493  34.9668553  22.1282753  35.4496493
  34.7868553  22.8532753  35.6886493  44.5588553  19.4002753  52.3696493
  44.6508553  20.1122753  52.8636493  43.9218553  18.9552753  52.7666493
  44.4778553  19.4392753  52.5016493  43.5528553  19.5902753  43.2236493
  42.8528553  20.1082753  43.1676493  43.5908553  19.2102753  42.4396493
  43.4548553  19.6112753  43.0996493  38.8598553  31.6812753  36.7476493
  39.3008553  31.7612753  37.4956493  38.0548553  31.4652753  37.0056493
  38.8058553  31.6612753  36.8966493  47.1508553  20.1062753  46.0236493
  48.0058553  20.2052753  46.1686493  46.7818553  20.6592753  46.5886493
  47.2228553  20.2032753  46.1286493  38.1788553  26.3322753  50.4006493
  37.7828553  27.1062753  50.4756493  37.7728553  25.9592753  49.7246493
  38.0608553  26.3912753  50.3116493  47.4548553  25.3862753  44.5146493
  48.1208553  25.9272753  44.6746493  47.1098553  25.6972753  43.7756493
  47.5018553  25.5122753  44.4296493  47.7678553  33.4522753  40.3216493
  47.5938553  32.7982753  40.8716493  48.4808553  33.1812753  39.8986493
  47.8478553  33.3152753  40.3406493  39.0078553  28.9962753  36.0916493
  38.1898553  28.7282753  36.2316493  38.9798553  29.8482753  36.2766493
  38.8828553  29.0832753  36.1396493  38.6078553  19.3092753  47.8506493
  37.7438553  19.3932753  47.9306493  38.8278553  18.7952753  48.5196493
  38.5128553  19.2462753  47.9616493  50.6258553  17.9442753  49.1796493
  50.5738553  17.9002753  50.0496493  51.3128553  17.4412753  48.9896493
  50.7198553  17.8642753  49.2796493  42.7108553  20.0572753  46.2246493
  41.9738553  19.6032753  46.3376493  43.2818553  19.6552753  46.7476493
  42.6858553  19.9302753  46.3186493  45.4428553  30.9052753  48.0126493
  45.6488553  31.2062753  48.8046493  45.3818553  31.6272753  47.5276493
  45.4638553  31.0562753  48.0576493  44.9768553  35.1192753  52.2586493
  44.2238553  35.1012753  51.8176493  45.1448553  35.9712753  52.3426493
  44.8908553  35.2422753  52.2056493  40.2138553  24.3862753  51.4286493
  39.8918553  23.8102753  50.8586493  39.8548553  25.1412753  51.1826493
  40.1138553  24.4122753  51.3086493  41.0098553  17.6382753  36.0556493
  41.0878553  17.8852753  35.2226493  40.2668553  18.0152753  36.3136493
  40.9118553  17.7302753  35.9706493  50.2548553  29.5442753  47.4706493
  50.2228553  28.6822753  47.3356493  49.5618553  29.8462753  47.0366493
  50.1478553  29.4612753  47.3866493  48.3598553  32.8042753  46.2676493
  48.8868553  32.7212753  45.5766493  47.9688553  32.0262753  46.3216493
  48.3798553  32.6772753  46.1736493  35.8278553  19.3922753  48.4986493
  35.4848553  18.6252753  48.2646493  35.1328553  19.9162753  48.5626493
  35.6748553  19.3562753  48.4736493  44.8738553  18.2482753  45.4756493
  45.5438553  18.7922753  45.6026493  44.3708553  18.6722753  44.9026493
  44.8988553  18.3912753  45.4096493  44.2328553  24.0562753  42.9686493
  44.7838553  23.4492753  43.2686493  43.8078553  24.3192753  43.6836493
  44.2518553  24.0052753  43.1176493  34.4808553  22.7062753  42.4546493
  34.1128553  23.0082753  43.1856493  35.0148553  22.0772753  42.7386493
  34.5048553  22.6582753  42.6046493  46.2028553  25.8872753  39.5306493
  46.2708553  25.0372753  39.7116493  45.3798553  25.9732753  39.2526493
  46.0908553  25.7742753  39.5166493  35.9548553  34.3812753  38.7406493
  35.8098553  34.5372753  37.8946493  36.8208553  34.4602753  38.8186493
  36.0618553  34.4162753  38.6276493  40.1218553  26.7782753  38.4686493
  40.2218553  26.9172753  37.6136493  40.9398553  26.7182753  38.7646493
  40.2568553  26.7892753  38.3856493  49.2818553  34.8422753  35.9486493
  49.9188553  34.7082753  36.5296493  48.9408553  34.0482753  35.8316493
  49.3258553  34.7052753  36.0166493  49.4768553  27.2602753  52.6816493
  50.1108553  27.0902753  53.2556493  49.8938553  27.6632753  52.0296493
  49.6318553  27.2952753  52.6706493  45.3568553  31.1072753  38.2706493
  45.1058553  30.9792753  39.0966493  45.0398553  30.4122753  37.8496493
  45.2728553  30.9862753  38.3306493  50.1018553  21.8242753  53.4196493
  49.9058553  22.4682753  53.9746493  49.3798553  21.3342753  53.4116493
  49.9668553  21.8472753  53.5006493  50.0008553  22.7652753  46.3906493
  49.1678553  23.0152753  46.3186493  49.9448553  21.9252753  46.6196493
  49.8698553  22.6782753  46.4136493  39.2608553  19.7532753  51.5846493
  39.4948553  19.1772753  50.9716493  38.4188553  19.5722753  51.7256493
  39.1708553  19.6412753  51.5146493  46.8878553  27.3712753  54.0366493
  47.7588553  27.3352753  54.0006493  46.6688553  27.7912753  53.3046493
  46.9848553  27.4272753  53.9236493  42.2428553  29.3152753  37.7006493
  42.9598553  28.9682753  37.3446493  42.2088553  30.1152753  37.3526493
  42.3438553  29.3822753  37.5966493  43.6518553  17.9562753  21.9394083
  43.4068553  18.4442753  21.2594083  44.5148553  17.8832753  21.8394083
  43.7428553  18.0172753  21.8244083  43.4608553  24.8722753  26.6104083
  42.9368553  25.4682753  26.9734083  43.8578553  24.5042753  27.2944083
  43.4418553  24.9062753  26.7654083  33.3298553  29.0122753  22.0664083
  32.8888553  29.1302753  22.8094083  33.0468553  28.2372753  21.7814083
  33.2228553  28.9152753  22.1344083  49.6048553  32.3132753  19.5814083
  50.3058553  31.7942753  19.5774083  49.0178553  31.8682753  19.1124083
  49.6218553  32.1702753  19.5114083  33.0728553  22.8042753  18.5734083
  32.2948553  22.9662753  18.2134083  33.1118553  21.9332753  18.5954083
  32.9638553  22.6992753  18.5234083  36.2118553  28.0672753  17.2454083
  35.8198553  27.6962753  16.5594083  36.1318553  27.4692753  17.8744083
  36.1418553  27.9242753  17.2364083  46.1318553  25.9392753  23.2864083
  46.2118553  25.9432753  22.4174083  45.5478553  25.3072753  23.4354083
  46.0568553  25.8462753  23.1804083  35.8388553  29.7082753  21.1454083
  36.4468553  29.5382753  21.7484083  35.0878553  29.5682753  21.5664083
  35.8178553  29.6622753  21.2964083  40.1208553  19.0432753  21.0944083
  40.0508553  19.7202753  20.5484083  40.8618553  18.6552753  20.8454083
  40.2198553  19.0862753  20.9764083  34.7298553  32.7992753  17.2224083
  35.1968553  32.8832753  16.4904083  35.1848553  32.2212753  17.6914083
  34.8658553  32.7262753  17.1834083  39.8438553  29.2722753  33.3884083
  39.6078553  29.2692753  34.2284083  39.0958553  29.1242753  32.9644083
  39.6978553  29.2492753  33.4494083  34.7158553  26.2682753  22.5234083
  34.2538553  25.8762753  21.8964083  35.4158553  25.7552753  22.6154083
  34.7508553  26.1352753  22.4444083  39.2238553  21.8782753  27.8704083
  39.9018553  21.8962753  27.3214083  39.1788553  21.0422753  28.1154083
  39.3168553  21.7572753  27.8254083  36.7168553  24.3682753  22.5464083
  37.5338553  24.1812753  22.7894083  36.2398553  23.7542753  22.9424083
  36.7668553  24.2502753  22.6414083  40.9208553  30.3492753  25.1564083
  41.2688553  29.5502753  25.1864083  41.5858553  30.8532753  24.9014083
  41.0708553  30.3052753  25.1234083  40.9778553  29.7982753  21.3674083
  41.3088553  29.1542753  21.8534083  41.2178553  29.5872753  20.5564083
  41.0618553  29.6722753  21.3194083  42.9458553  23.9292753  32.7064083
  42.0978553  23.8302753  32.5284083  42.9748553  24.6742753  33.1604083
  42.8248553  24.0252753  32.7474083  37.3138553  19.4622753  21.8124083
  37.0178553  19.9632753  21.1624083  38.1808553  19.5402753  21.7554083
  37.3978553  19.5482753  21.7084083  47.5038553  16.8892753  31.8204083
  47.3458553  17.6582753  31.4384083  46.7318553  16.6692753  32.1644083
  47.3658553  16.9702753  31.8154083  40.2928553  18.6042753  24.0354083
  40.3658553  19.4642753  24.1644083  40.2548553  18.5292753  23.1674083
  40.2978553  18.7202753  23.9264083  44.9658553  21.5302753  16.3344083
  44.5158553  22.2112753  16.6414083  45.0798553  21.0262753  17.0374083
  44.9168553  21.5562753  16.4834083  33.1718553  24.0292753  25.5364083
  32.9158553  24.8602753  25.4614083  32.5078553  23.6462753  25.9534083
  33.0358553  24.0952753  25.5874083  38.9218553  31.5832753  20.9164083
  38.3428553  31.3082753  21.5084083  39.5458553  30.9742753  20.9414083
  38.9288553  31.4532753  21.0074083  45.0648553  33.8712753  18.4384083
  45.7918553  34.3432753  18.5404083  45.2938553  33.0772753  18.7184083
  45.2068553  33.8242753  18.4954083  43.2328553  34.2632753  20.4284083
  43.4468553  34.7902753  21.0904083  43.9998553  34.0892753  20.0494083
  43.3778553  34.3152753  20.4704083  36.2008553  18.8462753  26.0274083
  35.6798553  18.2182753  25.7194083  36.7918553  18.4092753  26.4984083
  36.2118553  18.6882753  26.0514083  39.5068553  20.9792753  35.3254083
  39.6238553  20.5252753  34.5894083  39.7948553  21.7772753  35.1224083
  39.5668553  21.0302753  35.1864083  34.6268553  32.4092753  21.3674083
  35.2828553  31.8342753  21.3824083  35.0158553  33.1582753  21.1464083
  34.7818553  32.4342753  21.3374083  50.3598553  21.5032753  22.6294083
  50.0138553  22.1812753  23.0554083  49.7238553  20.9052753  22.6454083
  50.2148553  21.5152753  22.6944083  45.6718553  34.2732753  28.7334083
  46.4158553  34.7292753  28.7234083  45.5508553  34.0592753  27.8964083
  45.7638553  34.3092753  28.6084083  35.2398553  20.5762753  34.3094083
  34.4618553  20.1862753  34.2374083  35.7308553  20.1642753  33.7184083
  35.1968553  20.4572753  34.2114083  35.4448553  30.8962753  24.8674083
  35.8678553  30.5402753  24.1934083  35.7688553  30.4742753  25.5594083
  35.5548553  30.7812753  24.8704083  38.6758553  33.7482753  24.1634083
  39.5198553  33.8522753  23.9684083  38.3788553  34.5662753  24.2314083
  38.7568553  33.8842753  24.1444083  41.8888553  18.2192753  33.4774083
  42.0668553  17.4102753  33.2024083  41.7458553  18.6602753  32.7384083
  41.8938553  18.1652753  33.3274083  43.2048553  23.4842753  17.3714083
  43.4858553  24.2722753  17.6204083  42.4288553  23.6492753  17.0084083
  43.1318553  23.6252753  17.3544083  47.2458553  35.4582753  18.8384083
  47.9108553  35.3102753  18.2934083  47.6058553  35.3752753  19.6284083
  47.3978553  35.4242753  18.8744083  37.6738553  34.9672753  29.9034083
  37.9658553  34.9002753  30.7234083  37.0478553  34.3622753  29.8584083
  37.6248553  34.8682753  30.0184083  50.0348553  19.8262753  27.9984083
  50.7918553  19.8982753  27.5704083  50.0978553  19.0532753  28.3974083
  50.1558553  19.7232753  27.9934083  44.9258553  31.4582753  32.4374083
  44.8918553  31.8402753  33.2214083  45.7798553  31.4162753  32.2664083
  45.0468553  31.5082753  32.5284083  42.0638553  31.6552753  17.1874083
  41.8828553  32.2002753  17.8444083  42.8298553  31.9452753  16.8864083
  42.1498553  31.7792753  17.2404083  45.5708553  19.5512753  18.2414083
  46.1108553  18.8692753  18.3174083  45.6328553  19.9492753  19.0154083
  45.6598553  19.5092753  18.3674083  33.5248553  20.7192753  20.8104083
  33.4108553  19.8552753  20.8414083  33.0498553  21.0132753  21.4804083
  33.4378553  20.6352753  20.9134083  35.6668553  33.1292753  29.0254083
  34.9688553  32.6212753  29.1514083  35.9268553  32.9242753  28.2174083
  35.6018553  33.0242753  28.9244083  42.8288553  21.9272753  19.5554083
  42.3208553  21.2652753  19.3014083  42.8808553  22.4312753  18.8454083
  42.7618553  21.9042753  19.4134083  43.3778553  34.6222753  29.9354083
  44.1458553  34.5422753  29.5294083  42.7948553  34.5012753  29.2974083
  43.4048553  34.5922753  29.7814083  42.8288553  18.8682753  19.4464083
  42.3738553  18.4662753  18.8204083  43.6018553  19.0232753  19.0714083
  42.8758553  18.8322753  19.2984083  49.6548553  35.2252753  22.8364083
  49.1998553  35.9422753  23.0374083  49.0408553  34.6542753  22.5944083
  49.4968553  35.2472753  22.8304083  41.4268553  21.2352753  23.9684083
  41.5008553  21.8032753  23.3104083  41.5478553  21.7272753  24.6784083
  41.4548553  21.3922753  23.9764083  46.6518553  31.0702753  22.3804083
  47.3528553  30.5882753  22.5694083  45.9918553  30.5012753  22.4254083
  46.6578553  30.9152753  22.4144083  36.0348553  17.0582753  22.3164083
  36.5708553  17.7462753  22.3064083  36.0378553  16.7842753  21.4884083
  36.1138553  17.1192753  22.1924083  45.9178553  28.1242753  28.0614083
  45.4038553  27.7122753  28.6324083  45.7918553  28.9682753  28.2424083
  45.8238553  28.1882753  28.1724083  46.4748553  17.3492753  22.6924083
  46.5238553  17.0312753  23.5034083  46.7978553  16.7052753  22.1994083
  46.5298553  17.2072753  22.7394083  48.9388553  21.5852753  31.0004083
  49.7108553  21.3602753  31.3374083  48.4638553  21.8022753  31.7004083
  48.9828553  21.5842753  31.1534083  36.4828553  20.8682753  23.9704083
  36.7548553  20.4382753  23.2624083  36.3068553  20.2322753  24.5414083
  36.4968553  20.7112753  23.9504083  49.1708553  28.5632753  18.1884083
  49.2898553  28.2762753  19.0034083  49.9778553  28.5842753  17.8584083
  49.3068553  28.5242753  18.2604083  36.3068553  28.2952753  23.5194083
  37.1578553  28.2152753  23.3464083  35.9498553  27.6132753  23.1074083
  36.3798553  28.1822753  23.4324083  35.0738553  35.0202753  24.7564083
  34.4008553  34.5222753  24.5114083  35.4768553  35.2052753  24.0054083
  35.0338553  34.9742753  24.6094083  34.6238553  21.9702753  27.0524083
  35.4668553  22.1902753  27.0094083  34.2348553  22.5432753  26.5214083
  34.6908553  22.0872753  26.9674083  51.4048553  33.0722753  32.4424083
  50.7228553  33.3822753  31.9954083  51.0358553  32.6142753  33.0874083
  51.2488553  33.0502753  32.4714083  47.0658553  25.1002753  17.7734083
  46.8458553  25.8312753  17.3514083  46.6178553  25.1512753  18.5204083
  46.9668553  25.2152753  17.8214083  38.6748553  28.3022753  21.7544083
  39.3878553  28.7972753  21.8444083  38.8968553  27.7352753  21.1284083
  38.8128553  28.2912753  21.6754083  51.2528553  19.9612753  17.2264083
  50.5908553  19.3932753  17.2494083  51.0598553  20.4732753  16.5464083
  51.1268553  19.9532753  17.1294083  40.4778553  23.6552753  35.1704083
  39.9938553  24.2322753  35.6124083  40.4498553  23.9502753  34.3494083
  40.4018553  23.7842753  35.1144083  51.5758553  24.3392753  29.7824083
  51.7908553  23.5392753  29.5064083  50.7258553  24.3992753  29.5934083
  51.4818553  24.2302753  29.7134083  32.8968553  26.6292753  20.1774083
  32.7118553  25.7902753  20.3294083  33.5558553  26.5932753  19.6074083
  32.9668553  26.5002753  20.1154083  49.2548553  19.5192753  19.5054083
  50.0008553  19.1122753  19.7044083  49.5178553  20.2342753  19.0804083
  49.4038553  19.5652753  19.4724083  43.1978553  32.0052753  24.0814083
  42.6748553  32.6392753  23.7884083  43.5078553  31.6412753  23.3524083
  43.1658553  32.0452753  23.9304083  33.0688553  30.7932753  19.7524083
  33.6208553  31.3622753  20.1164083  32.8368553  30.2782753  20.4174083
  33.1158553  30.8012753  19.9044083  45.7088553  21.8072753  24.5784083
  46.0528553  21.9592753  25.3654083  45.2558553  21.0692753  24.6914083
  45.6928553  21.7202753  24.7114083  32.8988553  29.2422753  17.3804083
  33.6548553  28.8102753  17.4384083  32.9138553  29.7742753  18.0714083
  33.0128553  29.2572753  17.4914083  40.1848553  21.0272753  19.0354083
  40.1828553  20.9102753  18.1704083  40.0038553  21.8752753  19.1274083
  40.1578553  21.1352753  18.9214083  49.2388553  33.4542753  30.5324083
  48.5678553  33.9682753  30.7504083  49.3018553  33.5542753  29.6684083
  49.1488553  33.5452753  30.4374083  37.9228553  30.9792753  23.6674083
  38.0488553  31.8222753  23.8544083  38.5908553  30.5802753  24.0634083
  38.0408553  31.0452753  23.7534083  36.5378553  23.8592753  18.6694083
  36.4098553  23.4112753  19.4074083  35.9558553  23.5172753  18.1174083
  36.4328553  23.7422753  18.6974083  36.7048553  25.6892753  25.2684083
  35.9238553  25.6302753  24.8854083  36.7768553  24.9372753  25.7054083
  36.5998553  25.5702753  25.2764083  47.0298553  23.1392753  27.1324083
  46.3678553  23.4672753  27.5954083  47.2168553  23.7732753  26.5634083
  46.9598553  23.2812753  27.1164083  41.2348553  34.2032753  28.1284083
  40.9578553  33.5622753  27.6054083  41.0268553  34.9292753  27.6904083
  41.1638553  34.2162753  27.9864083  43.6748553  19.0452753  30.5614083
  43.8238553  18.2202753  30.3184083  44.0538553  19.1002753  31.3454083
  43.7528553  18.9312753  30.6414083  45.2228553  21.1082753  20.6434083
  45.7128553  21.8252753  20.5664083  44.4328553  21.3692753  20.3804083
  45.1788553  21.2522753  20.5934083  40.8328553  31.8312753  33.7304083
  41.1868553  31.6532753  34.5074083  40.3968553  31.1022753  33.5314083
  40.8208553  31.6972753  33.8164083  41.8048553  22.5782753  26.3684083
  42.2848553  23.2772753  26.5764083  42.1778553  21.9312753  26.8194083
  41.9308553  22.5862753  26.4654083  43.9938553  25.7472753  18.6424083
  43.9858553  26.4692753  18.1524083  43.3548553  25.8822753  19.2194083
  43.8988553  25.8742753  18.6554083  48.9658553  29.6172753  22.6234083
  49.3218553  29.2672753  23.3384083  48.9578553  28.9562753  22.0534083
  49.0178553  29.4672753  22.6444083  45.0108553  32.6832753  26.4674083
  44.4078553  32.3872753  25.9104083  45.5558553  33.1352753  25.9584083
  45.0018553  32.7062753  26.3094083  45.0238553  29.5342753  25.8674083
  44.2268553  29.7582753  26.1414083  45.2818553  28.9402753  26.4524083
  44.9438553  29.4792753  25.9944083  38.9158553  34.3462753  20.3154083
  38.7688553  33.5702753  20.6864083  39.6048553  34.1992753  19.8004083
  38.9958553  34.2092753  20.2944083  38.5868553  18.0892753  18.3034083
  38.6838553  17.9822753  19.1644083  37.8788553  18.5952753  18.2384083
  38.4968553  18.1482753  18.4214083  41.2078553  33.8622753  18.7174083
  41.8298553  34.0252753  19.3074083  41.2438553  34.5532753  18.1854083
  41.3048553  33.9882753  18.7264083  48.2838553  27.5322753  30.7134083
  48.3388553  27.6572753  29.8514083  49.0368553  27.8522753  31.0154083
  48.4028553  27.5972753  30.6304083  44.4748553  32.8812753  34.9904083
  44.6388553  33.1642753  35.7994083  44.7378553  33.5422753  34.4854083
  44.5378553  33.0212753  35.0354083  49.3158553  17.8302753  33.7004083
  48.6788553  17.4302753  33.2584083  49.3418553  17.3992753  34.4584083
  49.2258553  17.7082753  33.7464083  35.7088553  26.3962753  19.5464083
  36.0328553  25.6172753  19.3244083  36.3548553  26.7642753  20.0014083
  35.8518553  26.3352753  19.5804083  44.0148553  27.3382753  30.3134083
  43.8598553  27.9482753  30.9174083  44.5488553  26.7802753  30.7194083
  44.0708553  27.3462753  30.4624083  32.7058553  18.0572753  20.5144083
  32.8348553  17.3492753  20.0224083  32.3388553  17.7392753  21.2394083
  32.6708553  17.9052753  20.5494083  42.3988553  25.7382753  20.9714083
  42.4578553  26.3882753  21.5504083  42.2098553  25.0422753  21.4624083
  42.3798553  25.7312753  21.1294083  47.6248553  30.0672753  26.8404083
  47.1458553  30.3652753  26.1744083  47.2688553  29.2912753  27.0184083
  47.5018553  29.9962753  26.7684083  36.8948553  20.2552753  17.4834083
  36.3838553  20.3082753  16.7774083  37.6788553  20.4952753  17.1874083
  36.9348553  20.2982753  17.3354083  41.6218553  27.7852753  25.4024083
  40.7748553  27.5912753  25.4834083  41.9458553  27.6202753  26.1954083
  41.5438553  27.7322753  25.5314083  38.3738553  34.5152753  16.2884083
  38.8128553  33.8182753  16.5764083  38.5808553  35.1392753  16.8614083
  38.4698553  34.5042753  16.4154083  38.6998553  22.6492753  24.4534083
  39.5458553  22.4592753  24.5514083  38.3298553  21.8722753  24.3154083
  38.7698553  22.5062753  24.4474083  51.3168553  34.2332753  18.7804083
  52.0108553  33.7662753  18.5324083  50.7778553  33.6352753  19.1174083
  51.3398553  34.0752753  18.7934083  33.5208553  23.9872753  21.1084083
  34.0098553  23.6952753  21.7694083  33.6498553  23.3942753  20.4814083
  33.6118553  23.8562753  21.1134083  48.5558553  27.0092753  27.9594083
  48.5488553  26.2332753  28.3574083  47.7148553  27.2432753  27.9524083
  48.4308553  26.9292753  28.0174083  38.0458553  25.4212753  16.5944083
  37.4358553  25.0162753  17.0684083  37.6598553  25.5392753  15.8214083
  37.8988553  25.3782753  16.5504083  49.8118553  27.0802753  25.3964083
  49.5258553  27.4812753  26.1164083  50.6718553  27.0182753  25.5234083
  49.8968553  27.1302753  25.5214083  39.5008553  23.8822753  19.3044083
  39.7728553  24.7082753  19.3714083  38.6378553  23.9572753  19.2084083
  39.4138553  24.0152753  19.2994083  47.4738553  21.0042753  33.9364083
  46.9488553  21.4632753  34.4604083  47.1128553  20.2092753  33.9304083
  47.3428553  20.9542753  34.0124083  32.9808553  19.8522753  25.8404083
  33.0248553  20.1962753  25.0394083  33.7358553  20.0892753  26.2074083
  33.0988553  19.9382753  25.7764083  50.9428553  32.7132753  25.9254083
  51.2328553  32.9702753  25.1444083  51.6378553  32.8092753  26.4444083
  51.0888553  32.7652753  25.8864083  45.9658553  24.5732753  34.0124083
  46.0388553  24.6772753  34.8754083  45.3318553  25.1312753  33.7914083
  45.8828553  24.6712753  34.1074083  48.2338553  24.8922753  32.3774083
  48.5528553  25.6782753  32.5804083  47.8638553  24.6222753  33.1204083
  48.2268553  24.9682753  32.5174083  47.5478553  31.3162753  17.9074083
  47.8818553  30.5102753  17.9424083  46.7928553  31.2442753  18.3374083
  47.4858553  31.1862753  17.9764083  48.0298553  23.1502753  23.5664083
  47.2848553  22.8272753  23.8844083  48.0318553  23.9762753  23.8464083
  47.9198553  23.2242753  23.6544083  50.9318553  25.4342753  35.1124083
  50.8798553  25.0932753  34.3114083  51.6688553  25.9012753  35.0904083
  51.0328553  25.4532753  34.9904083  50.4698553  29.1102753  31.3184083
  51.0978553  28.5612753  31.0624083  50.4088553  29.6752753  30.6564083
  50.5538553  29.1132753  31.1824083  44.9218553  29.1912753  17.3104083
  45.6058553  28.6772753  17.1414083  44.5048553  29.2372753  16.5454083
  44.9608553  29.1222753  17.1724083  46.9418553  19.4802753  31.0274083
  47.6858553  19.9322753  30.9644083  46.3758553  19.9502753  30.5584083
  46.9688553  19.6172753  30.9494083  38.8298553  22.3672753  30.8464083
  38.9908553  21.6232753  31.2734083  38.7848553  22.1182753  30.0114083
  38.8468553  22.2202753  30.7864083  41.3838553  34.1572753  23.3334083
  41.9298553  34.8362753  23.3874083  41.0338553  34.2392753  22.5384083
  41.4128553  34.2702753  23.2234083  48.2268553  17.4602753  28.6974083
  47.9468553  18.2852753  28.6534083  48.9428553  17.5132753  29.1934083
  48.2918553  17.5902753  28.7644083  40.5818553  18.1752753  30.7264083
  41.2868553  18.4952753  30.3244083  40.8228553  17.3682753  30.9534083
  40.7208553  18.1032753  30.7004083  39.5668553  32.3852753  26.7224083
  38.9428553  32.9672753  26.5404083  39.8148553  32.0992753  25.9364083
  39.5108553  32.4292753  26.5794083  43.8758553  29.0192753  33.7114083
  44.6328553  29.3052753  33.3854083  43.3288553  29.0712753  33.0334083
  43.9068553  29.0692753  33.5624083  47.7848553  31.5692753  32.2154083
  48.1308553  31.8392753  32.9694083  48.0788553  32.1512753  31.6354083
  47.8798553  31.6952753  32.2414083  49.6478553  23.7152753  17.5544083
  50.0258553  24.3922753  17.1544083  48.8058553  23.9392753  17.5854083
  49.5788553  23.8482753  17.4994083  41.1608553  27.1612753  16.6374083
  40.3558553  26.9842753  16.3524083  41.1278553  28.0122753  16.8294083
  41.0368553  27.2602753  16.6244083  37.0908553  23.2282753  26.7874083
  37.5308553  23.1252753  26.0414083  37.6358553  22.9152753  27.3924083
  37.2358553  23.1672753  26.7664083  45.1068553  22.3302753  32.3794083
  44.4588553  22.8002753  32.7274083  45.6718553  22.2412753  33.0384083
  45.0948553  22.3862753  32.5284083  44.7948553  23.8672753  28.6774083
  45.0968553  24.2872753  29.3804083  44.8308553  23.0272753  28.9094083
  44.8448553  23.8052753  28.8154083  42.2198553  34.0342753  32.6024083
  42.6978553  33.4342753  32.1864083  41.8688553  33.5912753  33.2674083
  42.2388553  33.8802753  32.6394083  47.3428553  23.3142753  20.9294083
  47.5498553  23.1132753  21.7534083  48.0988553  23.5822753  20.5874083
  47.4848553  23.3242753  21.0004083  40.6378553  18.2132753  26.8344083
  39.8118553  18.0642753  27.0714083  40.5978553  18.2482753  25.9634083
  40.5098553  18.1962753  26.7404083  48.3648553  19.3972753  22.4034083
  47.6508553  18.9262753  22.5744083  48.2028553  19.7382753  21.6174083
  48.2358553  19.3782753  22.3124083  48.8078553  27.3412753  20.7834083
  49.2838553  26.6122753  20.7354083  47.9868553  27.0552753  20.7074083
  48.7568553  27.1912753  20.7644083  42.2788553  29.2532753  31.6224083
  41.4838553  29.1892753  31.9734083  42.3498553  30.1002753  31.4274083
  42.1718553  29.3682753  31.6454083  33.2028553  18.6112753  32.8694083
  33.0628553  19.4062753  32.5384083  32.4168553  18.3682753  33.1584083
  33.0658553  18.6932753  32.8634083  38.1088553  35.4602753  26.9394083
  38.1198553  35.5192753  27.8094083  37.6838553  34.7132753  26.7894083
  38.0478553  35.3582753  27.0454083  36.2668553  21.3552753  20.0944083
  36.3928553  21.0262753  19.2964083  35.4548553  21.1062753  20.2934083
  36.1658553  21.2702753  20.0064083  45.0238553  28.5082753  23.1384083
  45.0998553  28.8492753  23.9374083  45.1928553  27.6612753  23.2594083
  45.0598553  28.4332753  23.2744083  42.5458553  27.7822753  22.7034083
  42.2478553  27.4672753  23.4604083  43.2408553  28.2552753  22.9384083
  42.6048553  27.8052753  22.8504083  42.7678553  31.9002753  30.7304083
  43.4548553  31.7862753  31.2554083  42.9018553  32.6912753  30.3864083
  42.8888553  32.0002753  30.7574083  50.9438553  24.5092753  32.5414083
  50.0888553  24.3872753  32.6674083  51.0968553  24.1142753  31.7784083
  50.8398553  24.4322753  32.4474083  45.4568553  25.1742753  31.1174083
  45.2018553  24.4552753  31.5394083  46.2778553  25.2902753  31.3874083
  45.5408553  25.0852753  31.2194083  34.8728553  34.9582753  32.3814083
  34.2188553  34.3892753  32.4794083  34.4978553  35.7312753  32.5324083
  34.7208553  34.9882753  32.4184083  43.3908553  26.3642753  34.3044083
  43.7138553  27.0502753  33.8724083  42.6868553  26.6872753  34.7064083
  43.3338553  26.5132753  34.2994083  46.4748553  34.7382753  25.2334083
  46.0238553  35.3812753  25.6124083  47.1828553  34.6592753  25.7384083
  46.5128553  34.8212753  25.3644083  43.1758553  29.8282753  28.1634083
  42.4818553  30.2302753  28.5064083  43.8528553  30.2612753  28.5024083
  43.1728553  29.9512753  28.2644083  48.5528553  32.4212753  34.7434083
  49.3288553  32.0312753  34.8264083  48.0838553  32.0852753  35.3984083
  48.5978553  32.3142753  34.8524083  49.5778553  24.4542753  20.2254083
  49.6808553  24.3962753  19.3614083  50.3188553  24.1222753  20.5434083
  49.7028553  24.3972753  20.1444083  36.5728553  19.2242753  32.1964083
  36.4918553  18.3802753  32.4024083  36.2588553  19.2682753  31.3834083
  36.5148553  19.1062753  32.1064083  43.4978553  31.4192753  21.3324083
  43.2928553  32.2522753  21.1734083  42.7228553  31.0372753  21.4544083
  43.3528553  31.4862753  21.3274083  48.6798553  24.6002753  29.5814083
  48.6778553  23.7372753  29.7054083  48.7468553  24.9242753  30.3884083
  48.6898553  24.5202753  29.7184083  34.8718553  22.9762753  16.6274083
  34.1998553  22.9902753  17.1834083  34.9668553  22.1282753  16.4434083
  34.7868553  22.8532753  16.6824083  44.5588553  19.4002753  33.3634083
  44.6508553  20.1122753  33.8574083  43.9218553  18.9552753  33.7604083
  44.4778553  19.4392753  33.4954083  43.5528553  19.5902753  24.2174083
  42.8528553  20.1082753  24.1614083  43.5908553  19.2102753  23.4334083
  43.4548553  19.6112753  24.0934083  38.8598553  31.6812753  17.7414083
  39.3008553  31.7612753  18.4894083  38.0548553  31.4652753  17.9994083
  38.8058553  31.6612753  17.8904083  47.1508553  20.1062753  27.0174083
  48.0058553  20.2052753  27.1624083  46.7818553  20.6592753  27.5824083
  47.2228553  20.2032753  27.1224083  47.4548553  25.3862753  25.5084083
  48.1208553  25.9272753  25.6684083  47.1098553  25.6972753  24.7694083
  47.5018553  25.5122753  25.4234083  47.7678553  33.4522753  21.3154083
  47.5938553  32.7982753  21.8654083  48.4808553  33.1812753  20.8924083
  47.8478553  33.3152753  21.3344083  36.1888553  30.7512753  18.3424083
  35.9448553  30.4442753  19.1224083  36.1558553  30.0482753  17.8264083
  36.1478553  30.6022753  18.3814083  39.0078553  28.9962753  17.0854083
  38.1898553  28.7282753  17.2254083  38.9798553  29.8482753  17.2704083
  38.8828553  29.0832753  17.1334083  38.6078553  19.3092753  28.8444083
  37.7438553  19.3932753  28.9244083  38.8278553  18.7952753  29.5134083
  38.5128553  19.2462753  28.9554083  50.6258553  17.9442753  30.1734083
  50.5738553  17.9002753  31.0434083  51.3128553  17.4412753  29.9834083
  50.7198553  17.8642753  30.2734083  42.7108553  20.0572753  27.2184083
  41.9738553  19.6032753  27.3314083  43.2818553  19.6552753  27.7414083
  42.6858553  19.9302753  27.3124083  45.4428553  30.9052753  29.0064083
  45.6488553  31.2062753  29.7984083  45.3818553  31.6272753  28.5214083
  45.4638553  31.0562753  29.0514083  44.9768553  35.1192753  33.2524083
  44.2238553  35.1012753  32.8114083  45.1448553  35.9712753  33.3364083
  44.8908553  35.2422753  33.1994083  40.2138553  24.3862753  32.4224083
  39.8918553  23.8102753  31.8524083  39.8548553  25.1412753  32.1764083
  40.1138553  24.4122753  32.3024083  41.0098553  17.6382753  17.0494083
  41.0878553  17.8852753  16.2164083  40.2668553  18.0152753  17.3074083
  40.9118553  17.7302753  16.9644083  50.2548553  29.5442753  28.4644083
  50.2228553  28.6822753  28.3294083  49.5618553  29.8462753  28.0304083
  50.1478553  29.4612753  28.3804083  38.6488553  34.7422753  32.6704083
  38.6898553  34.8682753  33.5334083  39.2998553  34.1822753  32.5144083
  38.7508553  34.6782753  32.7754083  35.8278553  19.3922753  29.4924083
  35.4848553  18.6252753  29.2584083  35.1328553  19.9162753  29.5564083
  35.6748553  19.3562753  29.4674083  44.8738553  18.2482753  26.4694083
  45.5438553  18.7922753  26.5964083  44.3708553  18.6722753  25.8964083
  44.8988553  18.3912753  26.4034083  36.2418553  33.1252753  34.0304083
  36.8368553  33.5562753  34.5024083  35.8778553  33.7492753  33.5414083
  36.2758553  33.2812753  34.0274083  44.2328553  24.0562753  23.9624083
  44.7838553  23.4492753  24.2624083  43.8078553  24.3192753  24.6774083
  44.2518553  24.0052753  24.1114083  46.2028553  25.8872753  20.5244083
  46.2708553  25.0372753  20.7054083  45.3798553  25.9732753  20.2464083
  46.0908553  25.7742753  20.5104083  35.9548553  34.3812753  19.7344083
  35.8098553  34.5372753  18.8884083  36.8208553  34.4602753  19.8124083
  36.0618553  34.4162753  19.6214083  40.1218553  26.7782753  19.4624083
  40.2218553  26.9172753  18.6074083  40.9398553  26.7182753  19.7584083
  40.2568553  26.7892753  19.3794083  49.2818553  34.8422753  16.9424083
  49.9188553  34.7082753  17.5234083  48.9408553  34.0482753  16.8254083
  49.3258553  34.7052753  17.0104083  49.4768553  27.2602753  33.6754083
  50.1108553  27.0902753  34.2494083  49.8938553  27.6632753  33.0234083
  49.6318553  27.2952753  33.6644083  45.3568553  31.1072753  19.2644083
  45.1058553  30.9792753  20.0904083  45.0398553  30.4122753  18.8434083
  45.2728553  30.9862753  19.3244083  50.1018553  21.8242753  34.4134083
  49.9058553  22.4682753  34.9684083  49.3798553  21.3342753  34.4054083
  49.9668553  21.8472753  34.4944083  50.0008553  22.7652753  27.3844083
  49.1678553  23.0152753  27.3124083  49.9448553  21.9252753  27.6134083
  49.8698553  22.6782753  27.4074083  39.2608553  19.7532753  32.5784083
  39.4948553  19.1772753  31.9654083  38.4188553  19.5722753  32.7194083
  39.1708553  19.6412753  32.5084083  46.8878553  27.3712753  35.0304083
  47.7588553  27.3352753  34.9944083  46.6688553  27.7912753  34.2984083
  46.9848553  27.4272753  34.9174083  36.6418553  33.1962753  26.2114083
  36.5628553  32.3862753  25.8954083  36.1978553  33.6832753  25.6394083
  36.5648553  33.1482753  26.0804083  42.2428553  29.3152753  18.6944083
  42.9598553  28.9682753  18.3384083  42.2088553  30.1152753  18.3464083
  42.3438553  29.3822753  18.5904083  34.2138553  35.4402753  29.7924083
  34.7068553  35.3842753  30.5104083  34.4018553  34.7072753  29.3574083
  34.3148553  35.3232753  29.8344083  43.6518553  17.9562753   2.9331673
  43.4068553  18.4442753   2.2531673  44.5148553  17.8832753   2.8331673
  43.7428553  18.0172753   2.8181673  43.4608553  24.8722753   7.6041673
  42.9368553  25.4682753   7.9671673  43.8578553  24.5042753   8.2881673
  43.4418553  24.9062753   7.7591673  33.3298553  29.0122753   3.0601673
  32.8888553  29.1302753   3.8031673  33.0468553  28.2372753   2.7751673
  33.2228553  28.9152753   3.1281673  46.1318553  25.9392753   4.2801673
  46.2118553  25.9432753   3.4111673  45.5478553  25.3072753   4.4291673
  46.0568553  25.8462753   4.1741673  35.8388553  29.7082753   2.1391673
  36.4468553  29.5382753   2.7421673  35.0878553  29.5682753   2.5601673
  35.8178553  29.6622753   2.2901673  40.1208553  19.0432753   2.0881673
  40.0508553  19.7202753   1.5421673  40.8618553  18.6552753   1.8391673
  40.2198553  19.0862753   1.9701673  33.2698553  31.7472753   9.3151673
  33.3988553  31.4672753  10.1311673  32.6598553  31.2062753   9.0061673
  33.1988553  31.6262753   9.3901673  39.8438553  29.2722753  14.3821673
  39.6078553  29.2692753  15.2221673  39.0958553  29.1242753  13.9581673
  39.6978553  29.2492753  14.4431673  34.7158553  26.2682753   3.5171673
  34.2538553  25.8762753   2.8901673  35.4158553  25.7552753   3.6091673
  34.7508553  26.1352753   3.4381673  39.2238553  21.8782753   8.8641673
  39.9018553  21.8962753   8.3151673  39.1788553  21.0422753   9.1091673
  39.3168553  21.7572753   8.8191673  39.8258553  32.4642753  11.6451673
  39.9638553  33.2242753  11.2381673  40.6168553  32.0992753  11.6721673
  39.9628553  32.5232753  11.5891673  36.7168553  24.3682753   3.5401673
  37.5338553  24.1812753   3.7831673  36.2398553  23.7542753   3.9361673
  36.7668553  24.2502753   3.6351673  40.9208553  30.3492753   6.1501673
  41.2688553  29.5502753   6.1801673  41.5858553  30.8532753   5.8951673
  41.0708553  30.3052753   6.1171673  40.9778553  29.7982753   2.3611673
  41.3088553  29.1542753   2.8471673  41.2178553  29.5872753   1.5501673
  41.0618553  29.6722753   2.3131673  42.9458553  23.9292753  13.7001673
  42.0978553  23.8302753  13.5221673  42.9748553  24.6742753  14.1541673
  42.8248553  24.0252753  13.7411673  37.3138553  19.4622753   2.8061673
  37.0178553  19.9632753   2.1561673  38.1808553  19.5402753   2.7491673
  37.3978553  19.5482753   2.7021673  47.5038553  16.8892753  12.8141673
  47.3458553  17.6582753  12.4321673  46.7318553  16.6692753  13.1581673
  47.3658553  16.9702753  12.8091673  40.2928553  18.6042753   5.0291673
  40.3658553  19.4642753   5.1581673  40.2548553  18.5292753   4.1611673
  40.2978553  18.7202753   4.9201673  33.1718553  24.0292753   6.5301673
  32.9158553  24.8602753   6.4551673  32.5078553  23.6462753   6.9471673
  33.0358553  24.0952753   6.5811673  33.0818553  33.7392753   4.4301673
  32.4898553  34.2972753   4.1171673  33.5078553  33.4702753   3.7181673
  33.0578553  33.7812753   4.2791673  38.9218553  31.5832753   1.9101673
  38.3428553  31.3082753   2.5021673  39.5458553  30.9742753   1.9351673
  38.9288553  31.4532753   2.0011673  36.2008553  18.8462753   7.0211673
  35.6798553  18.2182753   6.7131673  36.7918553  18.4092753   7.4921673
  36.2118553  18.6882753   7.0451673  39.5068553  20.9792753  16.3191673
  39.6238553  20.5252753  15.5831673  39.7948553  21.7772753  16.1161673
  39.5668553  21.0302753  16.1801673  34.6268553  32.4092753   2.3611673
  35.2828553  31.8342753   2.3761673  35.0158553  33.1582753   2.1401673
  34.7818553  32.4342753   2.3311673  50.3598553  21.5032753   3.6231673
  50.0138553  22.1812753   4.0491673  49.7238553  20.9052753   3.6391673
  50.2148553  21.5152753   3.6881673  45.6718553  34.2732753   9.7271673
  46.4158553  34.7292753   9.7171673  45.5508553  34.0592753   8.8901673
  45.7638553  34.3092753   9.6021673  35.2398553  20.5762753  15.3031673
  34.4618553  20.1862753  15.2311673  35.7308553  20.1642753  14.7121673
  35.1968553  20.4572753  15.2051673  35.4448553  30.8962753   5.8611673
  35.8678553  30.5402753   5.1871673  35.7688553  30.4742753   6.5531673
  35.5548553  30.7812753   5.8641673  38.6758553  33.7482753   5.1571673
  39.5198553  33.8522753   4.9621673  38.3788553  34.5662753   5.2251673
  38.7568553  33.8842753   5.1381673  41.8888553  18.2192753  14.4711673
  42.0668553  17.4102753  14.1961673  41.7458553  18.6602753  13.7321673
  41.8938553  18.1652753  14.3211673  42.4828553  23.1452753   3.2441673
  42.7698553  22.9132753   2.4541673  43.2148553  23.2242753   3.7131673
  42.6328553  23.1222753   3.1971673  37.6738553  34.9672753  10.8971673
  37.9658553  34.9002753  11.7171673  37.0478553  34.3622753  10.8521673
  37.6248553  34.8682753  11.0121673  50.0348553  19.8262753   8.9921673
  50.7918553  19.8982753   8.5641673  50.0978553  19.0532753   9.3911673
  50.1558553  19.7232753   8.9871673  32.5878553  21.1242753  12.8891673
  32.5838553  21.7112753  13.5351673  33.1818553  21.4362753  12.3321673
  32.6748553  21.2572753  12.9021673  44.9258553  31.4582753  13.4311673
  44.8918553  31.8402753  14.2151673  45.7798553  31.4162753  13.2601673
  45.0468553  31.5082753  13.5221673  33.5248553  20.7192753   1.8041673
  33.4108553  19.8552753   1.8351673  33.0498553  21.0132753   2.4741673
  33.4378553  20.6352753   1.9071673  35.6668553  33.1292753  10.0191673
  34.9688553  32.6212753  10.1451673  35.9268553  32.9242753   9.2111673
  35.6018553  33.0242753   9.9181673  43.3778553  34.6222753  10.9291673
  44.1458553  34.5422753  10.5231673  42.7948553  34.5012753  10.2911673
  43.4048553  34.5922753  10.7751673  49.6548553  35.2252753   3.8301673
  49.1998553  35.9422753   4.0311673  49.0408553  34.6542753   3.5881673
  49.4968553  35.2472753   3.8241673  41.4268553  21.2352753   4.9621673
  41.5008553  21.8032753   4.3041673  41.5478553  21.7272753   5.6721673
  41.4548553  21.3922753   4.9701673  46.6518553  31.0702753   3.3741673
  47.3528553  30.5882753   3.5631673  45.9918553  30.5012753   3.4191673
  46.6578553  30.9152753   3.4081673  37.0278553  31.9802753  12.5861673
  37.8688553  32.0432753  12.3641673  36.9908553  32.3772753  13.3621673
  37.1468553  32.0482753  12.6681673  36.0348553  17.0582753   3.3101673
  36.5708553  17.7462753   3.3001673  36.0378553  16.7842753   2.4821673
  36.1138553  17.1192753   3.1861673  38.9908553  27.4912753   7.3351673
  39.1628553  27.2812753   8.1641673  38.3358553  26.9572753   7.1191673
  38.9198553  27.3812753   7.4261673  45.2188553  21.4052753  10.8501673
  45.1238553  21.7242753  11.6561673  44.6258553  20.7662753  10.8121673
  45.1168553  21.3572753  10.9641673  39.7408553  27.4292753   9.9251673
  39.7938553  28.2762753  10.1271673  39.4558553  27.0592753  10.6621673
  39.7068553  27.4992753  10.0631673  45.9178553  28.1242753   9.0551673
  45.4038553  27.7122753   9.6261673  45.7918553  28.9682753   9.2361673
  45.8238553  28.1882753   9.1661673  46.4748553  17.3492753   3.6861673
  46.5238553  17.0312753   4.4971673  46.7978553  16.7052753   3.1931673
  46.5298553  17.2072753   3.7331673  32.5618553  31.8002753  16.1361673
  33.3178553  32.1492753  16.3941673  32.7388553  30.9472753  16.0791673
  32.6998553  31.7252753  16.1661673  48.9388553  21.5852753  11.9941673
  49.7108553  21.3602753  12.3311673  48.4638553  21.8022753  12.6941673
  48.9828553  21.5842753  12.1471673  36.4828553  20.8682753   4.9641673
  36.7548553  20.4382753   4.2561673  36.3068553  20.2322753   5.5351673
  36.4968553  20.7112753   4.9441673  36.3068553  28.2952753   4.5131673
  37.1578553  28.2152753   4.3401673  35.9498553  27.6132753   4.1011673
  36.3798553  28.1822753   4.4261673  35.0738553  35.0202753   5.7501673
  34.4008553  34.5222753   5.5051673  35.4768553  35.2052753   4.9991673
  35.0338553  34.9742753   5.6031673  34.6238553  21.9702753   8.0461673
  35.4668553  22.1902753   8.0031673  34.2348553  22.5432753   7.5151673
  34.6908553  22.0872753   7.9611673  51.4048553  33.0722753  13.4361673
  50.7228553  33.3822753  12.9891673  51.0358553  32.6142753  14.0811673
  51.2488553  33.0502753  13.4651673  38.6748553  28.3022753   2.7481673
  39.3878553  28.7972753   2.8381673  38.8968553  27.7352753   2.1221673
  38.8128553  28.2912753   2.6691673  32.8308553  29.9452753   6.0681673
  32.1638553  30.4332753   6.3441673  33.5108553  30.4902753   6.0971673
  32.8328553  30.0972753   6.1131673  40.4778553  23.6552753  16.1641673
  39.9938553  24.2322753  16.6061673  40.4498553  23.9502753  15.3431673
  40.4018553  23.7842753  16.1081673  51.5758553  24.3392753  10.7761673
  51.7908553  23.5392753  10.5001673  50.7258553  24.3992753  10.5871673
  51.4818553  24.2302753  10.7071673  43.1978553  32.0052753   5.0751673
  42.6748553  32.6392753   4.7821673  43.5078553  31.6412753   4.3461673
  43.1658553  32.0452753   4.9241673  37.2728553  29.7932753   7.8351673
  37.7398553  30.0822753   8.5131673  37.8448553  29.3152753   7.3811673
  37.4268553  29.7652753   7.8681673  45.7088553  21.8072753   5.5721673
  46.0528553  21.9592753   6.3591673  45.2558553  21.0692753   5.6851673
  45.6928553  21.7202753   5.7051673  33.8388553  27.4632753   6.3791673
  34.2698553  27.3342753   5.6321673  33.6338553  28.3112753   6.3531673
  33.8718553  27.5692753   6.2651673  49.2388553  33.4542753  11.5261673
  48.5678553  33.9682753  11.7441673  49.3018553  33.5542753  10.6621673
  49.1488553  33.5452753  11.4311673  37.9228553  30.9792753   4.6611673
  38.0488553  31.8222753   4.8481673  38.5908553  30.5802753   5.0571673
  38.0408553  31.0452753   4.7471673  36.0528553  24.4622753  14.5231673
  35.5168553  23.9562753  14.9911673  36.0728553  24.0722753  13.7431673
  35.9758553  24.3292753  14.4771673  36.7048553  25.6892753   6.2621673
  35.9238553  25.6302753   5.8791673  36.7768553  24.9372753   6.6991673
  36.5998553  25.5702753   6.2701673  37.1348553  25.4262753   9.7301673
  37.1598553  24.7512753   9.1791673  36.4888553  25.9222753   9.4181673
  37.0438553  25.3992753   9.6031673  47.0298553  23.1392753   8.1261673
  46.3678553  23.4672753   8.5891673  47.2168553  23.7732753   7.5571673
  46.9598553  23.2812753   8.1101673  41.2348553  34.2032753   9.1221673
  40.9578553  33.5622753   8.5991673  41.0268553  34.9292753   8.6841673
  41.1638553  34.2162753   8.9801673  43.6748553  19.0452753  11.5551673
  43.8238553  18.2202753  11.3121673  44.0538553  19.1002753  12.3391673
  43.7528553  18.9312753  11.6351673  34.9338553  26.7812753  15.2891673
  34.8968553  27.2822753  14.5751673  35.2648553  26.0292753  14.9941673
  34.9768553  26.7432753  15.1401673  46.5368553  28.9862753  13.5471673
  47.0208553  29.7042753  13.6451673  46.9308553  28.5592753  12.8961673
  46.6668553  29.0292753  13.4651673  40.8328553  31.8312753  14.7241673
  41.1868553  31.6532753  15.5011673  40.3968553  31.1022753  14.5251673
  40.8208553  31.6972753  14.8101673  41.8048553  22.5782753   7.3621673
  42.2848553  23.2772753   7.5701673  42.1778553  21.9312753   7.8131673
  41.9308553  22.5862753   7.4591673  48.9658553  29.6172753   3.6171673
  49.3218553  29.2672753   4.3321673  48.9578553  28.9562753   3.0471673
  49.0178553  29.4672753   3.6381673  45.0108553  32.6832753   7.4611673
  44.4078553  32.3872753   6.9041673  45.5558553  33.1352753   6.9521673
  45.0018553  32.7062753   7.3031673  45.0238553  29.5342753   6.8611673
  44.2268553  29.7582753   7.1351673  45.2818553  28.9402753   7.4461673
  44.9438553  29.4792753   6.9881673  48.2838553  27.5322753  11.7071673
  48.3388553  27.6572753  10.8451673  49.0368553  27.8522753  12.0091673
  48.4028553  27.5972753  11.6241673  44.4748553  32.8812753  15.9841673
  44.6388553  33.1642753  16.7931673  44.7378553  33.5422753  15.4791673
  44.5378553  33.0212753  16.0291673  49.3158553  17.8302753  14.6941673
  48.6788553  17.4302753  14.2521673  49.3418553  17.3992753  15.4521673
  49.2258553  17.7082753  14.7401673  44.0148553  27.3382753  11.3071673
  43.8598553  27.9482753  11.9111673  44.5488553  26.7802753  11.7131673
  44.0708553  27.3462753  11.4561673  42.3988553  25.7382753   1.9651673
  42.4578553  26.3882753   2.5441673  42.2098553  25.0422753   2.4561673
  42.3798553  25.7312753   2.1231673  47.6248553  30.0672753   7.8341673
  47.1458553  30.3652753   7.1681673  47.2688553  29.2912753   8.0121673
  47.5018553  29.9962753   7.7621673  41.6218553  27.7852753   6.3961673
  40.7748553  27.5912753   6.4771673  41.9458553  27.6202753   7.1891673
  41.5438553  27.7322753   6.5251673  35.4698553  27.4782753   8.7121673
  36.1918553  27.9662753   8.6751673  35.1998553  27.4482753   7.8831673
  35.5368553  27.5462753   8.5841673  38.6998553  22.6492753   5.4471673
  39.5458553  22.4592753   5.5451673  38.3298553  21.8722753   5.3091673
  38.7698553  22.5062753   5.4411673  48.5558553  27.0092753   8.9531673
  48.5488553  26.2332753   9.3511673  47.7148553  27.2432753   8.9461673
  48.4308553  26.9292753   9.0111673  34.8648553  28.5302753  12.9901673
  34.4438553  28.0122753  12.4291673  34.5128553  29.3162753  12.8471673
  34.7508553  28.5702753  12.8861673  49.8118553  27.0802753   6.3901673
  49.5258553  27.4812753   7.1101673  50.6718553  27.0182753   6.5171673
  49.8968553  27.1302753   6.5151673  47.4738553  21.0042753  14.9301673
  46.9488553  21.4632753  15.4541673  47.1128553  20.2092753  14.9241673
  47.3428553  20.9542753  15.0061673  32.9808553  19.8522753   6.8341673
  33.0248553  20.1962753   6.0331673  33.7358553  20.0892753   7.2011673
  33.0988553  19.9382753   6.7701673  50.9428553  32.7132753   6.9191673
  51.2328553  32.9702753   6.1381673  51.6378553  32.8092753   7.4381673
  51.0888553  32.7652753   6.8801673  45.9658553  24.5732753  15.0061673
  46.0388553  24.6772753  15.8691673  45.3318553  25.1312753  14.7851673
  45.8828553  24.6712753  15.1011673  48.2338553  24.8922753  13.3711673
  48.5528553  25.6782753  13.5741673  47.8638553  24.6222753  14.1141673
  48.2268553  24.9682753  13.5111673  48.0298553  23.1502753   4.5601673
  47.2848553  22.8272753   4.8781673  48.0318553  23.9762753   4.8401673
  47.9198553  23.2242753   4.6481673  50.9318553  25.4342753  16.1061673
  50.8798553  25.0932753  15.3051673  51.6688553  25.9012753  16.0841673
  51.0328553  25.4532753  15.9841673  50.4698553  29.1102753  12.3121673
  51.0978553  28.5612753  12.0561673  50.4088553  29.6752753  11.6501673
  50.5538553  29.1132753  12.1761673  39.6038553  30.3412753   9.6081673
  39.3058553  30.9332753  10.1751673  39.6588553  30.7832753   8.8591673
  39.5678553  30.4942753   9.5811673  37.5828553  29.2912753  13.0061673
  36.7768553  29.0012753  13.1731673  37.4938553  30.1592753  13.0121673
  37.4508553  29.3762753  13.0311673  46.9418553  19.4802753  12.0211673
  47.6858553  19.9322753  11.9581673  46.3758553  19.9502753  11.5521673
  46.9688553  19.6172753  11.9431673  42.1198553  26.7642753   9.0991673
  42.5958553  27.1382753   9.7271673  41.2968553  26.8982753   9.3581673
  42.0688553  26.8392753   9.2301673  38.8298553  22.3672753  11.8401673
  38.9908553  21.6232753  12.2671673  38.7848553  22.1182753  11.0051673
  38.8468553  22.2202753  11.7801673  41.3838553  34.1572753   4.3271673
  41.9298553  34.8362753   4.3811673  41.0338553  34.2392753   3.5321673
  41.4128553  34.2702753   4.2171673  48.2268553  17.4602753   9.6911673
  47.9468553  18.2852753   9.6471673  48.9428553  17.5132753  10.1871673
  48.2918553  17.5902753   9.7581673  40.5818553  18.1752753  11.7201673
  41.2868553  18.4952753  11.3181673  40.8228553  17.3682753  11.9471673
  40.7208553  18.1032753  11.6941673  39.5668553  32.3852753   7.7161673
  38.9428553  32.9672753   7.5341673  39.8148553  32.0992753   6.9301673
  39.5108553  32.4292753   7.5731673  43.8758553  29.0192753  14.7051673
  44.6328553  29.3052753  14.3791673  43.3288553  29.0712753  14.0271673
  43.9068553  29.0692753  14.5561673  47.7848553  31.5692753  13.2091673
  48.1308553  31.8392753  13.9631673  48.0788553  32.1512753  12.6291673
  47.8798553  31.6952753  13.2351673  37.0908553  23.2282753   7.7811673
  37.5308553  23.1252753   7.0351673  37.6358553  22.9152753   8.3861673
  37.2358553  23.1672753   7.7601673  45.1068553  22.3302753  13.3731673
  44.4588553  22.8002753  13.7211673  45.6718553  22.2412753  14.0321673
  45.0948553  22.3862753  13.5221673  44.7948553  23.8672753   9.6711673
  45.0968553  24.2872753  10.3741673  44.8308553  23.0272753   9.9031673
  44.8448553  23.8052753   9.8091673  42.2198553  34.0342753  13.5961673
  42.6978553  33.4342753  13.1801673  41.8688553  33.5912753  14.2611673
  42.2388553  33.8802753  13.6331673  47.3428553  23.3142753   1.9231673
  47.5498553  23.1132753   2.7471673  48.0988553  23.5822753   1.5811673
  47.4848553  23.3242753   1.9941673  40.6378553  18.2132753   7.8281673
  39.8118553  18.0642753   8.0651673  40.5978553  18.2482753   6.9571673
  40.5098553  18.1962753   7.7341673  48.3648553  19.3972753   3.3971673
  47.6508553  18.9262753   3.5681673  48.2028553  19.7382753   2.6111673
  48.2358553  19.3782753   3.3061673  48.8078553  27.3412753   1.7771673
  49.2838553  26.6122753   1.7291673  47.9868553  27.0552753   1.7011673
  48.7568553  27.1912753   1.7581673  42.2788553  29.2532753  12.6161673
  41.4838553  29.1892753  12.9671673  42.3498553  30.1002753  12.4211673
  42.1718553  29.3682753  12.6391673  33.2028553  18.6112753  13.8631673
  33.0628553  19.4062753  13.5321673  32.4168553  18.3682753  14.1521673
  33.0658553  18.6932753  13.8571673  38.1088553  35.4602753   7.9331673
  38.1198553  35.5192753   8.8031673  37.6838553  34.7132753   7.7831673
  38.0478553  35.3582753   8.0391673  45.0238553  28.5082753   4.1321673
  45.0998553  28.8492753   4.9311673  45.1928553  27.6612753   4.2531673
  45.0598553  28.4332753   4.2681673  42.5458553  27.7822753   3.6971673
  42.2478553  27.4672753   4.4541673  43.2408553  28.2552753   3.9321673
  42.6048553  27.8052753   3.8441673  42.7678553  31.9002753  11.7241673
  43.4548553  31.7862753  12.2491673  42.9018553  32.6912753  11.3801673
  42.8888553  32.0002753  11.7511673  50.9438553  24.5092753  13.5351673
  50.0888553  24.3872753  13.6611673  51.0968553  24.1142753  12.7721673
  50.8398553  24.4322753  13.4411673  45.4568553  25.1742753  12.1111673
  45.2018553  24.4552753  12.5331673  46.2778553  25.2902753  12.3811673
  45.5408553  25.0852753  12.2131673  34.8728553  34.9582753  13.3751673
  34.2188553  34.3892753  13.4731673  34.4978553  35.7312753  13.5261673
  34.7208553  34.9882753  13.4121673  43.3908553  26.3642753  15.2981673
  43.7138553  27.0502753  14.8661673  42.6868553  26.6872753  15.7001673
  43.3338553  26.5132753  15.2931673  46.4748553  34.7382753   6.2271673
  46.0238553  35.3812753   6.6061673  47.1828553  34.6592753   6.7321673
  46.5128553  34.8212753   6.3581673  43.1758553  29.8282753   9.1571673
  42.4818553  30.2302753   9.5001673  43.8528553  30.2612753   9.4961673
  43.1728553  29.9512753   9.2581673  48.5528553  32.4212753  15.7371673
  49.3288553  32.0312753  15.8201673  48.0838553  32.0852753  16.3921673
  48.5978553  32.3142753  15.8461673  36.2438553  23.3662753  11.5041673
  36.6188553  23.9852753  11.0171673  36.9178553  22.8922753  11.7891673
  36.3988553  23.3882753  11.4741673  34.0188553  21.8142753  10.7791673
  34.0958553  21.6452753   9.9261673  34.7648553  22.2202753  10.9761673
  34.1398553  21.8492753  10.6821673  36.5728553  19.2242753  13.1901673
  36.4918553  18.3802753  13.3961673  36.2588553  19.2682753  12.3771673
  36.5148553  19.1062753  13.1001673  43.4978553  31.4192753   2.3261673
  43.2928553  32.2522753   2.1671673  42.7228553  31.0372753   2.4481673
  43.3528553  31.4862753   2.3211673  48.6798553  24.6002753  10.5751673
  48.6778553  23.7372753  10.6991673  48.7468553  24.9242753  11.3821673
  48.6898553  24.5202753  10.7121673  33.4158553  27.0402753  11.0031673
  33.7358553  27.2592753  10.2221673  33.3158553  26.1752753  10.9481673
  33.4478553  26.9452753  10.8801673  44.5588553  19.4002753  14.3571673
  44.6508553  20.1122753  14.8511673  43.9218553  18.9552753  14.7541673
  44.4778553  19.4392753  14.4891673  43.5528553  19.5902753   5.2111673
  42.8528553  20.1082753   5.1551673  43.5908553  19.2102753   4.4271673
  43.4548553  19.6112753   5.0871673  47.1508553  20.1062753   8.0111673
  48.0058553  20.2052753   8.1561673  46.7818553  20.6592753   8.5761673
  47.2228553  20.2032753   8.1161673  38.1788553  26.3322753  12.3881673
  37.7828553  27.1062753  12.4631673  37.7728553  25.9592753  11.7121673
  38.0608553  26.3912753  12.2991673  47.4548553  25.3862753   6.5021673
  48.1208553  25.9272753   6.6621673  47.1098553  25.6972753   5.7631673
  47.5018553  25.5122753   6.4171673  47.7678553  33.4522753   2.3091673
  47.5938553  32.7982753   2.8591673  48.4808553  33.1812753   1.8861673
  47.8478553  33.3152753   2.3281673  38.6078553  19.3092753   9.8381673
  37.7438553  19.3932753   9.9181673  38.8278553  18.7952753  10.5071673
  38.5128553  19.2462753   9.9491673  50.6258553  17.9442753  11.1671673
  50.5738553  17.9002753  12.0371673  51.3128553  17.4412753  10.9771673
  50.7198553  17.8642753  11.2671673  42.7108553  20.0572753   8.2121673
  41.9738553  19.6032753   8.3251673  43.2818553  19.6552753   8.7351673
  42.6858553  19.9302753   8.3061673  45.4428553  30.9052753  10.0001673
  45.6488553  31.2062753  10.7921673  45.3818553  31.6272753   9.5151673
  45.4638553  31.0562753  10.0451673  44.9768553  35.1192753  14.2461673
  44.2238553  35.1012753  13.8051673  45.1448553  35.9712753  14.3301673
  44.8908553  35.2422753  14.1931673  40.2138553  24.3862753  13.4161673
  39.8918553  23.8102753  12.8461673  39.8548553  25.1412753  13.1701673
  40.1138553  24.4122753  13.2961673  50.2548553  29.5442753   9.4581673
  50.2228553  28.6822753   9.3231673  49.5618553  29.8462753   9.0241673
  50.1478553  29.4612753   9.3741673  38.6488553  34.7422753  13.6641673
  38.6898553  34.8682753  14.5271673  39.2998553  34.1822753  13.5081673
  38.7508553  34.6782753  13.7691673  48.3598553  32.8042753   8.2551673
  48.8868553  32.7212753   7.5641673  47.9688553  32.0262753   8.3091673
  48.3798553  32.6772753   8.1611673  35.8278553  19.3922753  10.4861673
  35.4848553  18.6252753  10.2521673  35.1328553  19.9162753  10.5501673
  35.6748553  19.3562753  10.4611673  44.8738553  18.2482753   7.4631673
  45.5438553  18.7922753   7.5901673  44.3708553  18.6722753   6.8901673
  44.8988553  18.3912753   7.3971673  36.2418553  33.1252753  15.0241673
  36.8368553  33.5562753  15.4961673  35.8778553  33.7492753  14.5351673
  36.2758553  33.2812753  15.0211673  44.2328553  24.0562753   4.9561673
  44.7838553  23.4492753   5.2561673  43.8078553  24.3192753   5.6711673
  44.2518553  24.0052753   5.1051673  34.4808553  22.7062753   4.4421673
  34.1128553  23.0082753   5.1731673  35.0148553  22.0772753   4.7261673
  34.5048553  22.6582753   4.5921673  34.1688553  31.1142753  11.9531673
  33.5948553  31.5302753  12.4621673  34.9018553  31.5792753  12.0481673
  34.1928553  31.2442753  12.0421673  49.4768553  27.2602753  14.6691673
  50.1108553  27.0902753  15.2431673  49.8938553  27.6632753  14.0171673
  49.6318553  27.2952753  14.6581673  50.1018553  21.8242753  15.4071673
  49.9058553  22.4682753  15.9621673  49.3798553  21.3342753  15.3991673
  49.9668553  21.8472753  15.4881673  50.0008553  22.7652753   8.3781673
  49.1678553  23.0152753   8.3061673  49.9448553  21.9252753   8.6071673
  49.8698553  22.6782753   8.4011673  39.2608553  19.7532753  13.5721673
  39.4948553  19.1772753  12.9591673  38.4188553  19.5722753  13.7131673
  39.1708553  19.6412753  13.5021673  46.8878553  27.3712753  16.0241673
  47.7588553  27.3352753  15.9881673  46.6688553  27.7912753  15.2921673
  46.9848553  27.4272753  15.9111673  36.6418553  33.1962753   7.2051673
  36.5628553  32.3862753   6.8891673  36.1978553  33.6832753   6.6331673
  36.5648553  33.1482753   7.0741673  34.2138553  35.4402753  10.7861673
  34.7068553  35.3842753  11.5041673  34.4018553  34.7072753  10.3511673
  34.3148553  35.3232753  10.8281673  43.4608553   6.3941673  83.6291313
  42.9368553   6.9901673  83.9921313  43.8578553   6.0261673  84.3131313
  43.4418553   6.4281673  83.7841313  33.3298553  10.5341673  79.0851313
  32.8888553  10.6521673  79.8281313  33.0468553   9.7591673  78.8001313
  33.2228553  10.4371673  79.1531313  49.6048553  13.8351673  76.6001313
  50.3058553  13.3161673  76.5961313  49.0178553  13.3901673  76.1311313
  49.6218553  13.6921673  76.5301313  33.0728553   4.3261673  75.5921313
  32.2948553   4.4881673  75.2321313  33.1118553   3.4551673  75.6141313
  32.9638553   4.2211673  75.5421313  36.2118553   9.5891673  74.2641313
  35.8198553   9.2181673  73.5781313  36.1318553   8.9911673  74.8931313
  36.1418553   9.4461673  74.2551313  46.1318553   7.4611673  80.3051313
  46.2118553   7.4651673  79.4361313  45.5478553   6.8291673  80.4541313
  46.0568553   7.3681673  80.1991313  35.8388553  11.2301673  78.1641313
  36.4468553  11.0601673  78.7671313  35.0878553  11.0901673  78.5851313
  35.8178553  11.1841673  78.3151313  34.7298553  14.3211673  74.2411313
  35.1968553  14.4051673  73.5091313  35.1848553  13.7431673  74.7101313
  34.8658553  14.2481673  74.2021313  33.2698553  13.2691673  85.3401313
  33.3988553  12.9891673  86.1561313  32.6598553  12.7281673  85.0311313
  33.1988553  13.1481673  85.4151313  34.7158553   7.7901673  79.5421313
  34.2538553   7.3981673  78.9151313  35.4158553   7.2771673  79.6341313
  34.7508553   7.6571673  79.4631313  39.2238553   3.4001673  84.8891313
  39.9018553   3.4181673  84.3401313  39.1788553   2.5641673  85.1341313
  39.3168553   3.2791673  84.8441313  39.8258553  13.9861673  87.6701313
  39.9638553  14.7461673  87.2631313  40.6168553  13.6211673  87.6971313
  39.9628553  14.0451673  87.6141313  36.7168553   5.8901673  79.5651313
  37.5338553   5.7031673  79.8081313  36.2398553   5.2761673  79.9611313
  36.7668553   5.7721673  79.6601313  40.9208553  11.8711673  82.1751313
  41.2688553  11.0721673  82.2051313  41.5858553  12.3751673  81.9201313
  41.0708553  11.8271673  82.1421313  40.9778553  11.3201673  78.3861313
  41.3088553  10.6761673  78.8721313  41.2178553  11.1091673  77.5751313
  41.0618553  11.1941673  78.3381313  44.9658553   3.0521673  73.3531313
  44.5158553   3.7331673  73.6601313  45.0798553   2.5481673  74.0561313
  44.9168553   3.0781673  73.5021313  33.1718553   5.5511673  82.5551313
  32.9158553   6.3821673  82.4801313  32.5078553   5.1681673  82.9721313
  33.0358553   5.6171673  82.6061313  33.0818553  15.2611673  80.4551313
  32.4898553  15.8191673  80.1421313  33.5078553  14.9921673  79.7431313
  33.0578553  15.3031673  80.3041313  38.9218553  13.1051673  77.9351313
  38.3428553  12.8301673  78.5271313  39.5458553  12.4961673  77.9601313
  38.9288553  12.9751673  78.0261313  45.0648553  15.3931673  75.4571313
  45.7918553  15.8651673  75.5591313  45.2938553  14.5991673  75.7371313
  45.2068553  15.3461673  75.5141313  43.2328553  15.7851673  77.4471313
  43.4468553  16.3121673  78.1091313  43.9998553  15.6111673  77.0681313
  43.3778553  15.8371673  77.4891313  34.6268553  13.9311673  78.3861313
  35.2828553  13.3561673  78.4011313  35.0158553  14.6801673  78.1651313
  34.7818553  13.9561673  78.3561313  50.3598553   3.0251673  79.6481313
  50.0138553   3.7031673  80.0741313  49.7238553   2.4271673  79.6641313
  50.2148553   3.0371673  79.7131313  45.6718553  15.7951673  85.7521313
  46.4158553  16.2511673  85.7421313  45.5508553  15.5811673  84.9151313
  45.7638553  15.8311673  85.6271313  35.4448553  12.4181673  81.8861313
  35.8678553  12.0621673  81.2121313  35.7688553  11.9961673  82.5781313
  35.5548553  12.3031673  81.8891313  38.6758553  15.2701673  81.1821313
  39.5198553  15.3741673  80.9871313  38.3788553  16.0881673  81.2501313
  38.7568553  15.4061673  81.1631313  42.4828553   4.6671673  79.2691313
  42.7698553   4.4351673  78.4791313  43.2148553   4.7461673  79.7381313
  42.6328553   4.6441673  79.2221313  43.2048553   5.0061673  74.3901313
  43.4858553   5.7941673  74.6391313  42.4288553   5.1711673  74.0271313
  43.1318553   5.1471673  74.3731313  47.2458553  16.9801673  75.8571313
  47.9108553  16.8321673  75.3121313  47.6058553  16.8971673  76.6471313
  47.3978553  16.9461673  75.8931313  37.6738553  16.4891673  86.9221313
  37.9658553  16.4221673  87.7421313  37.0478553  15.8841673  86.8771313
  37.6248553  16.3901673  87.0371313  42.0638553  13.1771673  74.2061313
  41.8828553  13.7221673  74.8631313  42.8298553  13.4671673  73.9051313
  42.1498553  13.3011673  74.2591313  35.6668553  14.6511673  86.0441313
  34.9688553  14.1431673  86.1701313  35.9268553  14.4461673  85.2361313
  35.6018553  14.5461673  85.9431313  42.8288553   3.4491673  76.5741313
  42.3208553   2.7871673  76.3201313  42.8808553   3.9531673  75.8641313
  42.7618553   3.4261673  76.4321313  43.3778553  16.1441673  86.9541313
  44.1458553  16.0641673  86.5481313  42.7948553  16.0231673  86.3161313
  43.4048553  16.1141673  86.8001313  49.6548553  16.7471673  79.8551313
  49.1998553  17.4641673  80.0561313  49.0408553  16.1761673  79.6131313
  49.4968553  16.7691673  79.8491313  41.4268553   2.7571673  80.9871313
  41.5008553   3.3251673  80.3291313  41.5478553   3.2491673  81.6971313
  41.4548553   2.9141673  80.9951313  46.6518553  12.5921673  79.3991313
  47.3528553  12.1101673  79.5881313  45.9918553  12.0231673  79.4441313
  46.6578553  12.4371673  79.4331313  38.9908553   9.0131673  83.3601313
  39.1628553   8.8031673  84.1891313  38.3358553   8.4791673  83.1441313
  38.9198553   8.9031673  83.4511313  45.2188553   2.9271673  86.8751313
  45.1238553   3.2461673  87.6811313  44.6258553   2.2881673  86.8371313
  45.1168553   2.8791673  86.9891313  39.7408553   8.9511673  85.9501313
  39.7938553   9.7981673  86.1521313  39.4558553   8.5811673  86.6871313
  39.7068553   9.0211673  86.0881313  45.9178553   9.6461673  85.0801313
  45.4038553   9.2341673  85.6511313  45.7918553  10.4901673  85.2611313
  45.8238553   9.7101673  85.1911313  36.4828553   2.3901673  80.9891313
  36.7548553   1.9601673  80.2811313  36.3068553   1.7541673  81.5601313
  36.4968553   2.2331673  80.9691313  49.1708553  10.0851673  75.2071313
  49.2898553   9.7981673  76.0221313  49.9778553  10.1061673  74.8771313
  49.3068553  10.0461673  75.2791313  36.3068553   9.8171673  80.5381313
  37.1578553   9.7371673  80.3651313  35.9498553   9.1351673  80.1261313
  36.3798553   9.7041673  80.4511313  35.0738553  16.5421673  81.7751313
  34.4008553  16.0441673  81.5301313  35.4768553  16.7271673  81.0241313
  35.0338553  16.4961673  81.6281313  34.6238553   3.4921673  84.0711313
  35.4668553   3.7121673  84.0281313  34.2348553   4.0651673  83.5401313
  34.6908553   3.6091673  83.9861313  47.0658553   6.6221673  74.7921313
  46.8458553   7.3531673  74.3701313  46.6178553   6.6731673  75.5391313
  46.9668553   6.7371673  74.8401313  38.6748553   9.8241673  78.7731313
  39.3878553  10.3191673  78.8631313  38.8968553   9.2571673  78.1471313
  38.8128553   9.8131673  78.6941313  32.8308553  11.4671673  82.0931313
  32.1638553  11.9551673  82.3691313  33.5108553  12.0121673  82.1221313
  32.8328553  11.6191673  82.1381313  51.5758553   5.8611673  86.8011313
  51.7908553   5.0611673  86.5251313  50.7258553   5.9211673  86.6121313
  51.4818553   5.7521673  86.7321313  32.8968553   8.1511673  77.1961313
  32.7118553   7.3121673  77.3481313  33.5558553   8.1151673  76.6261313
  32.9668553   8.0221673  77.1341313  43.1978553  13.5271673  81.1001313
  42.6748553  14.1611673  80.8071313  43.5078553  13.1631673  80.3711313
  43.1658553  13.5671673  80.9491313  33.0688553  12.3151673  76.7711313
  33.6208553  12.8841673  77.1351313  32.8368553  11.8001673  77.4361313
  33.1158553  12.3231673  76.9231313  37.2728553  11.3151673  83.8601313
  37.7398553  11.6041673  84.5381313  37.8448553  10.8371673  83.4061313
  37.4268553  11.2871673  83.8931313  45.7088553   3.3291673  81.5971313
  46.0528553   3.4811673  82.3841313  45.2558553   2.5911673  81.7101313
  45.6928553   3.2421673  81.7301313  32.8988553  10.7641673  74.3991313
  33.6548553  10.3321673  74.4571313  32.9138553  11.2961673  75.0901313
  33.0128553  10.7791673  74.5101313  33.8388553   8.9851673  82.4041313
  34.2698553   8.8561673  81.6571313  33.6338553   9.8331673  82.3781313
  33.8718553   9.0911673  82.2901313  40.1848553   2.5491673  76.0541313
  40.1828553   2.4321673  75.1891313  40.0038553   3.3971673  76.1461313
  40.1578553   2.6571673  75.9401313  49.2388553  14.9761673  87.5511313
  48.5678553  15.4901673  87.7691313  49.3018553  15.0761673  86.6871313
  49.1488553  15.0671673  87.4561313  37.9228553  12.5011673  80.6861313
  38.0488553  13.3441673  80.8731313  38.5908553  12.1021673  81.0821313
  38.0408553  12.5671673  80.7721313  36.5378553   5.3811673  75.6881313
  36.4098553   4.9331673  76.4261313  35.9558553   5.0391673  75.1361313
  36.4328553   5.2641673  75.7161313  36.7048553   7.2111673  82.2871313
  35.9238553   7.1521673  81.9041313  36.7768553   6.4591673  82.7241313
  36.5998553   7.0921673  82.2951313  37.1348553   6.9481673  85.7551313
  37.1598553   6.2731673  85.2041313  36.4888553   7.4441673  85.4431313
  37.0438553   6.9211673  85.6281313  47.0298553   4.6611673  84.1511313
  46.3678553   4.9891673  84.6141313  47.2168553   5.2951673  83.5821313
  46.9598553   4.8031673  84.1351313  41.2348553  15.7251673  85.1471313
  40.9578553  15.0841673  84.6241313  41.0268553  16.4511673  84.7091313
  41.1638553  15.7381673  85.0051313  45.2228553   2.6301673  77.6621313
  45.7128553   3.3471673  77.5851313  44.4328553   2.8911673  77.3991313
  45.1788553   2.7741673  77.6121313  41.8048553   4.1001673  83.3871313
  42.2848553   4.7991673  83.5951313  42.1778553   3.4531673  83.8381313
  41.9308553   4.1081673  83.4841313  43.9938553   7.2691673  75.6611313
  43.9858553   7.9911673  75.1711313  43.3548553   7.4041673  76.2381313
  43.8988553   7.3961673  75.6741313  48.9658553  11.1391673  79.6421313
  49.3218553  10.7891673  80.3571313  48.9578553  10.4781673  79.0721313
  49.0178553  10.9891673  79.6631313  45.0108553  14.2051673  83.4861313
  44.4078553  13.9091673  82.9291313  45.5558553  14.6571673  82.9771313
  45.0018553  14.2281673  83.3281313  45.0238553  11.0561673  82.8861313
  44.2268553  11.2801673  83.1601313  45.2818553  10.4621673  83.4711313
  44.9438553  11.0011673  83.0131313  38.9158553  15.8681673  77.3341313
  38.7688553  15.0921673  77.7051313  39.6048553  15.7211673  76.8191313
  38.9958553  15.7311673  77.3131313  41.2078553  15.3841673  75.7361313
  41.8298553  15.5471673  76.3261313  41.2438553  16.0751673  75.2041313
  41.3048553  15.5101673  75.7451313  48.2838553   9.0541673  87.7321313
  48.3388553   9.1791673  86.8701313  49.0368553   9.3741673  88.0341313
  48.4028553   9.1191673  87.6491313  35.7088553   7.9181673  76.5651313
  36.0328553   7.1391673  76.3431313  36.3548553   8.2861673  77.0201313
  35.8518553   7.8571673  76.5991313  44.0148553   8.8601673  87.3321313
  43.8598553   9.4701673  87.9361313  44.5488553   8.3021673  87.7381313
  44.0708553   8.8681673  87.4811313  42.3988553   7.2601673  77.9901313
  42.4578553   7.9101673  78.5691313  42.2098553   6.5641673  78.4811313
  42.3798553   7.2531673  78.1481313  47.6248553  11.5891673  83.8591313
  47.1458553  11.8871673  83.1931313  47.2688553  10.8131673  84.0371313
  47.5018553  11.5181673  83.7871313  36.8948553   1.7771673  74.5021313
  36.3838553   1.8301673  73.7961313  37.6788553   2.0171673  74.2061313
  36.9348553   1.8201673  74.3541313  41.6218553   9.3071673  82.4211313
  40.7748553   9.1131673  82.5021313  41.9458553   9.1421673  83.2141313
  41.5438553   9.2541673  82.5501313  38.3738553  16.0371673  73.3071313
  38.8128553  15.3401673  73.5951313  38.5808553  16.6611673  73.8801313
  38.4698553  16.0261673  73.4341313  35.4698553   9.0001673  84.7371313
  36.1918553   9.4881673  84.7001313  35.1998553   8.9701673  83.9081313
  35.5368553   9.0681673  84.6091313  38.6998553   4.1711673  81.4721313
  39.5458553   3.9811673  81.5701313  38.3298553   3.3941673  81.3341313
  38.7698553   4.0281673  81.4661313  51.3168553  15.7551673  75.7991313
  52.0108553  15.2881673  75.5511313  50.7778553  15.1571673  76.1361313
  51.3398553  15.5971673  75.8121313  33.5208553   5.5091673  78.1271313
  34.0098553   5.2171673  78.7881313  33.6498553   4.9161673  77.5001313
  33.6118553   5.3781673  78.1321313  48.5558553   8.5311673  84.9781313
  48.5488553   7.7551673  85.3761313  47.7148553   8.7651673  84.9711313
  48.4308553   8.4511673  85.0361313  38.0458553   6.9431673  73.6131313
  37.4358553   6.5381673  74.0871313  37.6598553   7.0611673  72.8401313
  37.8988553   6.9001673  73.5691313  49.8118553   8.6021673  82.4151313
  49.5258553   9.0031673  83.1351313  50.6718553   8.5401673  82.5421313
  49.8968553   8.6521673  82.5401313  39.5008553   5.4041673  76.3231313
  39.7728553   6.2301673  76.3901313  38.6378553   5.4791673  76.2271313
  39.4138553   5.5371673  76.3181313  50.9428553  14.2351673  82.9441313
  51.2328553  14.4921673  82.1631313  51.6378553  14.3311673  83.4631313
  51.0888553  14.2871673  82.9051313  47.5478553  12.8381673  74.9261313
  47.8818553  12.0321673  74.9611313  46.7928553  12.7661673  75.3561313
  47.4858553  12.7081673  74.9951313  48.0298553   4.6721673  80.5851313
  47.2848553   4.3491673  80.9031313  48.0318553   5.4981673  80.8651313
  47.9198553   4.7461673  80.6731313  44.9218553  10.7131673  74.3291313
  45.6058553  10.1991673  74.1601313  44.5048553  10.7591673  73.5641313
  44.9608553  10.6441673  74.1911313  39.6038553  11.8631673  85.6331313
  39.3058553  12.4551673  86.2001313  39.6588553  12.3051673  84.8841313
  39.5678553  12.0161673  85.6061313  42.1198553   8.2861673  85.1241313
  42.5958553   8.6601673  85.7521313  41.2968553   8.4201673  85.3831313
  42.0688553   8.3611673  85.2551313  41.3838553  15.6791673  80.3521313
  41.9298553  16.3581673  80.4061313  41.0338553  15.7611673  79.5571313
  41.4128553  15.7921673  80.2421313  39.5668553  13.9071673  83.7411313
  38.9428553  14.4891673  83.5591313  39.8148553  13.6211673  82.9551313
  39.5108553  13.9511673  83.5981313  49.6478553   5.2371673  74.5731313
  50.0258553   5.9141673  74.1731313  48.8058553   5.4611673  74.6041313
  49.5788553   5.3701673  74.5181313  41.1608553   8.6831673  73.6561313
  40.3558553   8.5061673  73.3711313  41.1278553   9.5341673  73.8481313
  41.0368553   8.7821673  73.6431313  37.0908553   4.7501673  83.8061313
  37.5308553   4.6471673  83.0601313  37.6358553   4.4371673  84.4111313
  37.2358553   4.6891673  83.7851313  44.7948553   5.3891673  85.6961313
  45.0968553   5.8091673  86.3991313  44.8308553   4.5491673  85.9281313
  44.8448553   5.3271673  85.8341313  47.3428553   4.8361673  77.9481313
  47.5498553   4.6351673  78.7721313  48.0988553   5.1041673  77.6061313
  47.4848553   4.8461673  78.0191313  48.8078553   8.8631673  77.8021313
  49.2838553   8.1341673  77.7541313  47.9868553   8.5771673  77.7261313
  48.7568553   8.7131673  77.7831313  38.1088553  16.9821673  83.9581313
  38.1198553  17.0411673  84.8281313  37.6838553  16.2351673  83.8081313
  38.0478553  16.8801673  84.0641313  36.2668553   2.8771673  77.1131313
  36.3928553   2.5481673  76.3151313  35.4548553   2.6281673  77.3121313
  36.1658553   2.7921673  77.0251313  45.0238553  10.0301673  80.1571313
  45.0998553  10.3711673  80.9561313  45.1928553   9.1831673  80.2781313
  45.0598553   9.9551673  80.2931313  42.5458553   9.3041673  79.7221313
  42.2478553   8.9891673  80.4791313  43.2408553   9.7771673  79.9571313
  42.6048553   9.3271673  79.8691313  46.4748553  16.2601673  82.2521313
  46.0238553  16.9031673  82.6311313  47.1828553  16.1811673  82.7571313
  46.5128553  16.3431673  82.3831313  43.1758553  11.3501673  85.1821313
  42.4818553  11.7521673  85.5251313  43.8528553  11.7831673  85.5211313
  43.1728553  11.4731673  85.2831313  36.2438553   4.8881673  87.5291313
  36.6188553   5.5071673  87.0421313  36.9178553   4.4141673  87.8141313
  36.3988553   4.9101673  87.4991313  34.0188553   3.3361673  86.8041313
  34.0958553   3.1671673  85.9511313  34.7648553   3.7421673  87.0011313
  34.1398553   3.3711673  86.7071313  49.5778553   5.9761673  77.2441313
  49.6808553   5.9181673  76.3801313  50.3188553   5.6441673  77.5621313
  49.7028553   5.9191673  77.1631313  43.4978553  12.9411673  78.3511313
  43.2928553  13.7741673  78.1921313  42.7228553  12.5591673  78.4731313
  43.3528553  13.0081673  78.3461313  48.6798553   6.1221673  86.6001313
  48.6778553   5.2591673  86.7241313  48.7468553   6.4461673  87.4071313
  48.6898553   6.0421673  86.7371313  33.4158553   8.5621673  87.0281313
  33.7358553   8.7811673  86.2471313  33.3158553   7.6971673  86.9731313
  33.4478553   8.4671673  86.9051313  34.8718553   4.4981673  73.6461313
  34.1998553   4.5121673  74.2021313  34.9668553   3.6501673  73.4621313
  34.7868553   4.3751673  73.7011313  38.8598553  13.2031673  74.7601313
  39.3008553  13.2831673  75.5081313  38.0548553  12.9871673  75.0181313
  38.8058553  13.1831673  74.9091313  47.4548553   6.9081673  82.5271313
  48.1208553   7.4491673  82.6871313  47.1098553   7.2191673  81.7881313
  47.5018553   7.0341673  82.4421313  47.7678553  14.9741673  78.3341313
  47.5938553  14.3201673  78.8841313  48.4808553  14.7031673  77.9111313
  47.8478553  14.8371673  78.3531313  36.1888553  12.2731673  75.3611313
  35.9448553  11.9661673  76.1411313  36.1558553  11.5701673  74.8451313
  36.1478553  12.1241673  75.4001313  39.0078553  10.5181673  74.1041313
  38.1898553  10.2501673  74.2441313  38.9798553  11.3701673  74.2891313
  38.8828553  10.6051673  74.1521313  45.4428553  12.4271673  86.0251313
  45.6488553  12.7281673  86.8171313  45.3818553  13.1491673  85.5401313
  45.4638553  12.5781673  86.0701313  50.2548553  11.0661673  85.4831313
  50.2228553  10.2041673  85.3481313  49.5618553  11.3681673  85.0491313
  50.1478553  10.9831673  85.3991313  48.3598553  14.3261673  84.2801313
  48.8868553  14.2431673  83.5891313  47.9688553  13.5481673  84.3341313
  48.3798553  14.1991673  84.1861313  44.2328553   5.5781673  80.9811313
  44.7838553   4.9711673  81.2811313  43.8078553   5.8411673  81.6961313
  44.2518553   5.5271673  81.1301313  34.4808553   4.2281673  80.4671313
  34.1128553   4.5301673  81.1981313  35.0148553   3.5991673  80.7511313
  34.5048553   4.1801673  80.6171313  46.2028553   7.4091673  77.5431313
  46.2708553   6.5591673  77.7241313  45.3798553   7.4951673  77.2651313
  46.0908553   7.2961673  77.5291313  35.9548553  15.9031673  76.7531313
  35.8098553  16.0591673  75.9071313  36.8208553  15.9821673  76.8311313
  36.0618553  15.9381673  76.6401313  40.1218553   8.3001673  76.4811313
  40.2218553   8.4391673  75.6261313  40.9398553   8.2401673  76.7771313
  40.2568553   8.3111673  76.3981313  49.2818553  16.3641673  73.9611313
  49.9188553  16.2301673  74.5421313  48.9408553  15.5701673  73.8441313
  49.3258553  16.2271673  74.0291313  45.3568553  12.6291673  76.2831313
  45.1058553  12.5011673  77.1091313  45.0398553  11.9341673  75.8621313
  45.2728553  12.5081673  76.3431313  50.0008553   4.2871673  84.4031313
  49.1678553   4.5371673  84.3311313  49.9448553   3.4471673  84.6321313
  49.8698553   4.2001673  84.4261313  36.6418553  14.7181673  83.2301313
  36.5628553  13.9081673  82.9141313  36.1978553  15.2051673  82.6581313
  36.5648553  14.6701673  83.0991313  42.2428553  10.8371673  75.7131313
  42.9598553  10.4901673  75.3571313  42.2088553  11.6371673  75.3651313
  42.3438553  10.9041673  75.6091313  34.2138553  16.9621673  86.8111313
  34.7068553  16.9061673  87.5291313  34.4018553  16.2291673  86.3761313
  34.3148553  16.8451673  86.8531313  43.4608553   6.3941673  64.6228903
  42.9368553   6.9901673  64.9858903  43.8578553   6.0261673  65.3068903
  43.4418553   6.4281673  64.7778903  33.3298553  10.5341673  60.0788903
  32.8888553  10.6521673  60.8218903  33.0468553   9.7591673  59.7938903
  33.2228553  10.4371673  60.1468903  49.6048553  13.8351673  57.5938903
  50.3058553  13.3161673  57.5898903  49.0178553  13.3901673  57.1248903
  49.6218553  13.6921673  57.5238903  33.0728553   4.3261673  56.5858903
  32.2948553   4.4881673  56.2258903  33.1118553   3.4551673  56.6078903
  32.9638553   4.2211673  56.5358903  36.2118553   9.5891673  55.2578903
  35.8198553   9.2181673  54.5718903  36.1318553   8.9911673  55.8868903
  36.1418553   9.4461673  55.2488903  46.1318553   7.4611673  61.2988903
  46.2118553   7.4651673  60.4298903  45.5478553   6.8291673  61.4478903
  46.0568553   7.3681673  61.1928903  35.8388553  11.2301673  59.1578903
  36.4468553  11.0601673  59.7608903  35.0878553  11.0901673  59.5788903
  35.8178553  11.1841673  59.3088903  34.7298553  14.3211673  55.2348903
  35.1968553  14.4051673  54.5028903  35.1848553  13.7431673  55.7038903
  34.8658553  14.2481673  55.1958903  33.2698553  13.2691673  66.3338903
  33.3988553  12.9891673  67.1498903  32.6598553  12.7281673  66.0248903
  33.1988553  13.1481673  66.4088903  39.8438553  10.7941673  71.4008903
  39.6078553  10.7911673  72.2408903  39.0958553  10.6461673  70.9768903
  39.6978553  10.7711673  71.4618903  34.7158553   7.7901673  60.5358903
  34.2538553   7.3981673  59.9088903  35.4158553   7.2771673  60.6278903
  34.7508553   7.6571673  60.4568903  39.2238553   3.4001673  65.8828903
  39.9018553   3.4181673  65.3338903  39.1788553   2.5641673  66.1278903
  39.3168553   3.2791673  65.8378903  39.8258553  13.9861673  68.6638903
  39.9638553  14.7461673  68.2568903  40.6168553  13.6211673  68.6908903
  39.9628553  14.0451673  68.6078903  36.7168553   5.8901673  60.5588903
  37.5338553   5.7031673  60.8018903  36.2398553   5.2761673  60.9548903
  36.7668553   5.7721673  60.6538903  40.9208553  11.8711673  63.1688903
  41.2688553  11.0721673  63.1988903  41.5858553  12.3751673  62.9138903
  41.0708553  11.8271673  63.1358903  40.9778553  11.3201673  59.3798903
  41.3088553  10.6761673  59.8658903  41.2178553  11.1091673  58.5688903
  41.0618553  11.1941673  59.3318903  42.9458553   5.4511673  70.7188903
  42.0978553   5.3521673  70.5408903  42.9748553   6.1961673  71.1728903
  42.8248553   5.5471673  70.7598903  44.9658553   3.0521673  54.3468903
  44.5158553   3.7331673  54.6538903  45.0798553   2.5481673  55.0498903
  44.9168553   3.0781673  54.4958903  33.1718553   5.5511673  63.5488903
  32.9158553   6.3821673  63.4738903  32.5078553   5.1681673  63.9658903
  33.0358553   5.6171673  63.5998903  33.0818553  15.2611673  61.4488903
  32.4898553  15.8191673  61.1358903  33.5078553  14.9921673  60.7368903
  33.0578553  15.3031673  61.2978903  38.9218553  13.1051673  58.9288903
  38.3428553  12.8301673  59.5208903  39.5458553  12.4961673  58.9538903
  38.9288553  12.9751673  59.0198903  45.0648553  15.3931673  56.4508903
  45.7918553  15.8651673  56.5528903  45.2938553  14.5991673  56.7308903
  45.2068553  15.3461673  56.5078903  43.2328553  15.7851673  58.4408903
  43.4468553  16.3121673  59.1028903  43.9998553  15.6111673  58.0618903
  43.3778553  15.8371673  58.4828903  39.5068553   2.5011673  73.3378903
  39.6238553   2.0471673  72.6018903  39.7948553   3.2991673  73.1348903
  39.5668553   2.5521673  73.1988903  34.6268553  13.9311673  59.3798903
  35.2828553  13.3561673  59.3948903  35.0158553  14.6801673  59.1588903
  34.7818553  13.9561673  59.3498903  50.3598553   3.0251673  60.6418903
  50.0138553   3.7031673  61.0678903  49.7238553   2.4271673  60.6578903
  50.2148553   3.0371673  60.7068903  45.6718553  15.7951673  66.7458903
  46.4158553  16.2511673  66.7358903  45.5508553  15.5811673  65.9088903
  45.7638553  15.8311673  66.6208903  35.4448553  12.4181673  62.8798903
  35.8678553  12.0621673  62.2058903  35.7688553  11.9961673  63.5718903
  35.5548553  12.3031673  62.8828903  38.6758553  15.2701673  62.1758903
  39.5198553  15.3741673  61.9808903  38.3788553  16.0881673  62.2438903
  38.7568553  15.4061673  62.1568903  42.4828553   4.6671673  60.2628903
  42.7698553   4.4351673  59.4728903  43.2148553   4.7461673  60.7318903
  42.6328553   4.6441673  60.2158903  43.2048553   5.0061673  55.3838903
  43.4858553   5.7941673  55.6328903  42.4288553   5.1711673  55.0208903
  43.1318553   5.1471673  55.3668903  37.6738553  16.4891673  67.9158903
  37.9658553  16.4221673  68.7358903  37.0478553  15.8841673  67.8708903
  37.6248553  16.3901673  68.0308903  32.5878553   2.6461673  69.9078903
  32.5838553   3.2331673  70.5538903  33.1818553   2.9581673  69.3508903
  32.6748553   2.7791673  69.9208903  44.9258553  12.9801673  70.4498903
  44.8918553  13.3621673  71.2338903  45.7798553  12.9381673  70.2788903
  45.0468553  13.0301673  70.5408903  42.0638553  13.1771673  55.1998903
  41.8828553  13.7221673  55.8568903  42.8298553  13.4671673  54.8988903
  42.1498553  13.3011673  55.2528903  35.6668553  14.6511673  67.0378903
  34.9688553  14.1431673  67.1638903  35.9268553  14.4461673  66.2298903
  35.6018553  14.5461673  66.9368903  42.8288553   3.4491673  57.5678903
  42.3208553   2.7871673  57.3138903  42.8808553   3.9531673  56.8578903
  42.7618553   3.4261673  57.4258903  43.3778553  16.1441673  67.9478903
  44.1458553  16.0641673  67.5418903  42.7948553  16.0231673  67.3098903
  43.4048553  16.1141673  67.7938903  49.6548553  16.7471673  60.8488903
  49.1998553  17.4641673  61.0498903  49.0408553  16.1761673  60.6068903
  49.4968553  16.7691673  60.8428903  41.4268553   2.7571673  61.9808903
  41.5008553   3.3251673  61.3228903  41.5478553   3.2491673  62.6908903
  41.4548553   2.9141673  61.9888903  46.6518553  12.5921673  60.3928903
  47.3528553  12.1101673  60.5818903  45.9918553  12.0231673  60.4378903
  46.6578553  12.4371673  60.4268903  37.0278553  13.5021673  69.6048903
  37.8688553  13.5651673  69.3828903  36.9908553  13.8991673  70.3808903
  37.1468553  13.5701673  69.6868903  38.9908553   9.0131673  64.3538903
  39.1628553   8.8031673  65.1828903  38.3358553   8.4791673  64.1378903
  38.9198553   8.9031673  64.4448903  45.2188553   2.9271673  67.8688903
  45.1238553   3.2461673  68.6748903  44.6258553   2.2881673  67.8308903
  45.1168553   2.8791673  67.9828903  39.7408553   8.9511673  66.9438903
  39.7938553   9.7981673  67.1458903  39.4558553   8.5811673  67.6808903
  39.7068553   9.0211673  67.0818903  45.9178553   9.6461673  66.0738903
  45.4038553   9.2341673  66.6448903  45.7918553  10.4901673  66.2548903
  45.8238553   9.7101673  66.1848903  32.5618553  13.3221673  73.1548903
  33.3178553  13.6711673  73.4128903  32.7388553  12.4691673  73.0978903
  32.6998553  13.2471673  73.1848903  48.9388553   3.1071673  69.0128903
  49.7108553   2.8821673  69.3498903  48.4638553   3.3241673  69.7128903
  48.9828553   3.1061673  69.1658903  36.4828553   2.3901673  61.9828903
  36.7548553   1.9601673  61.2748903  36.3068553   1.7541673  62.5538903
  36.4968553   2.2331673  61.9628903  49.1708553  10.0851673  56.2008903
  49.2898553   9.7981673  57.0158903  49.9778553  10.1061673  55.8708903
  49.3068553  10.0461673  56.2728903  36.3068553   9.8171673  61.5318903
  37.1578553   9.7371673  61.3588903  35.9498553   9.1351673  61.1198903
  36.3798553   9.7041673  61.4448903  35.0738553  16.5421673  62.7688903
  34.4008553  16.0441673  62.5238903  35.4768553  16.7271673  62.0178903
  35.0338553  16.4961673  62.6218903  34.6238553   3.4921673  65.0648903
  35.4668553   3.7121673  65.0218903  34.2348553   4.0651673  64.5338903
  34.6908553   3.6091673  64.9798903  51.4048553  14.5941673  70.4548903
  50.7228553  14.9041673  70.0078903  51.0358553  14.1361673  71.0998903
  51.2488553  14.5721673  70.4838903  47.0658553   6.6221673  55.7858903
  46.8458553   7.3531673  55.3638903  46.6178553   6.6731673  56.5328903
  46.9668553   6.7371673  55.8338903  38.6748553   9.8241673  59.7668903
  39.3878553  10.3191673  59.8568903  38.8968553   9.2571673  59.1408903
  38.8128553   9.8131673  59.6878903  32.8308553  11.4671673  63.0868903
  32.1638553  11.9551673  63.3628903  33.5108553  12.0121673  63.1158903
  32.8328553  11.6191673  63.1318903  40.4778553   5.1771673  73.1828903
  39.9938553   5.7541673  73.6248903  40.4498553   5.4721673  72.3618903
  40.4018553   5.3061673  73.1268903  51.5758553   5.8611673  67.7948903
  51.7908553   5.0611673  67.5188903  50.7258553   5.9211673  67.6058903
  51.4818553   5.7521673  67.7258903  32.8968553   8.1511673  58.1898903
  32.7118553   7.3121673  58.3418903  33.5558553   8.1151673  57.6198903
  32.9668553   8.0221673  58.1278903  43.1978553  13.5271673  62.0938903
  42.6748553  14.1611673  61.8008903  43.5078553  13.1631673  61.3648903
  43.1658553  13.5671673  61.9428903  33.0688553  12.3151673  57.7648903
  33.6208553  12.8841673  58.1288903  32.8368553  11.8001673  58.4298903
  33.1158553  12.3231673  57.9168903  37.2728553  11.3151673  64.8538903
  37.7398553  11.6041673  65.5318903  37.8448553  10.8371673  64.3998903
  37.4268553  11.2871673  64.8868903  45.7088553   3.3291673  62.5908903
  46.0528553   3.4811673  63.3778903  45.2558553   2.5911673  62.7038903
  45.6928553   3.2421673  62.7238903  32.8988553  10.7641673  55.3928903
  33.6548553  10.3321673  55.4508903  32.9138553  11.2961673  56.0838903
  33.0128553  10.7791673  55.5038903  33.8388553   8.9851673  63.3978903
  34.2698553   8.8561673  62.6508903  33.6338553   9.8331673  63.3718903
  33.8718553   9.0911673  63.2838903  40.1848553   2.5491673  57.0478903
  40.1828553   2.4321673  56.1828903  40.0038553   3.3971673  57.1398903
  40.1578553   2.6571673  56.9338903  49.2388553  14.9761673  68.5448903
  48.5678553  15.4901673  68.7628903  49.3018553  15.0761673  67.6808903
  49.1488553  15.0671673  68.4498903  37.9228553  12.5011673  61.6798903
  38.0488553  13.3441673  61.8668903  38.5908553  12.1021673  62.0758903
  38.0408553  12.5671673  61.7658903  36.0528553   5.9841673  71.5418903
  35.5168553   5.4781673  72.0098903  36.0728553   5.5941673  70.7618903
  35.9758553   5.8511673  71.4958903  36.5378553   5.3811673  56.6818903
  36.4098553   4.9331673  57.4198903  35.9558553   5.0391673  56.1298903
  36.4328553   5.2641673  56.7098903  36.7048553   7.2111673  63.2808903
  35.9238553   7.1521673  62.8978903  36.7768553   6.4591673  63.7178903
  36.5998553   7.0921673  63.2888903  37.1348553   6.9481673  66.7488903
  37.1598553   6.2731673  66.1978903  36.4888553   7.4441673  66.4368903
  37.0438553   6.9211673  66.6218903  47.0298553   4.6611673  65.1448903
  46.3678553   4.9891673  65.6078903  47.2168553   5.2951673  64.5758903
  46.9598553   4.8031673  65.1288903  41.2348553  15.7251673  66.1408903
  40.9578553  15.0841673  65.6178903  41.0268553  16.4511673  65.7028903
  41.1638553  15.7381673  65.9988903  45.2228553   2.6301673  58.6558903
  45.7128553   3.3471673  58.5788903  44.4328553   2.8911673  58.3928903
  45.1788553   2.7741673  58.6058903  34.9338553   8.3031673  72.3078903
  34.8968553   8.8041673  71.5938903  35.2648553   7.5511673  72.0128903
  34.9768553   8.2651673  72.1588903  46.5368553  10.5081673  70.5658903
  47.0208553  11.2261673  70.6638903  46.9308553  10.0811673  69.9148903
  46.6668553  10.5511673  70.4838903  40.8328553  13.3531673  71.7428903
  41.1868553  13.1751673  72.5198903  40.3968553  12.6241673  71.5438903
  40.8208553  13.2191673  71.8288903  41.8048553   4.1001673  64.3808903
  42.2848553   4.7991673  64.5888903  42.1778553   3.4531673  64.8318903
  41.9308553   4.1081673  64.4778903  43.9938553   7.2691673  56.6548903
  43.9858553   7.9911673  56.1648903  43.3548553   7.4041673  57.2318903
  43.8988553   7.3961673  56.6678903  48.9658553  11.1391673  60.6358903
  49.3218553  10.7891673  61.3508903  48.9578553  10.4781673  60.0658903
  49.0178553  10.9891673  60.6568903  45.0108553  14.2051673  64.4798903
  44.4078553  13.9091673  63.9228903  45.5558553  14.6571673  63.9708903
  45.0018553  14.2281673  64.3218903  45.0238553  11.0561673  63.8798903
  44.2268553  11.2801673  64.1538903  45.2818553  10.4621673  64.4648903
  44.9438553  11.0011673  64.0068903  38.9158553  15.8681673  58.3278903
  38.7688553  15.0921673  58.6988903  39.6048553  15.7211673  57.8128903
  38.9958553  15.7311673  58.3068903  41.2078553  15.3841673  56.7298903
  41.8298553  15.5471673  57.3198903  41.2438553  16.0751673  56.1978903
  41.3048553  15.5101673  56.7388903  48.2838553   9.0541673  68.7258903
  48.3388553   9.1791673  67.8638903  49.0368553   9.3741673  69.0278903
  48.4028553   9.1191673  68.6428903  44.4748553  14.4031673  73.0028903
  44.6388553  14.6861673  73.8118903  44.7378553  15.0641673  72.4978903
  44.5378553  14.5431673  73.0478903  35.7088553   7.9181673  57.5588903
  36.0328553   7.1391673  57.3368903  36.3548553   8.2861673  58.0138903
  35.8518553   7.8571673  57.5928903  44.0148553   8.8601673  68.3258903
  43.8598553   9.4701673  68.9298903  44.5488553   8.3021673  68.7318903
  44.0708553   8.8681673  68.4748903  42.3988553   7.2601673  58.9838903
  42.4578553   7.9101673  59.5628903  42.2098553   6.5641673  59.4748903
  42.3798553   7.2531673  59.1418903  47.6248553  11.5891673  64.8528903
  47.1458553  11.8871673  64.1868903  47.2688553  10.8131673  65.0308903
  47.5018553  11.5181673  64.7808903  36.8948553   1.7771673  55.4958903
  36.3838553   1.8301673  54.7898903  37.6788553   2.0171673  55.1998903
  36.9348553   1.8201673  55.3478903  41.6218553   9.3071673  63.4148903
  40.7748553   9.1131673  63.4958903  41.9458553   9.1421673  64.2078903
  41.5438553   9.2541673  63.5438903  38.3738553  16.0371673  54.3008903
  38.8128553  15.3401673  54.5888903  38.5808553  16.6611673  54.8738903
  38.4698553  16.0261673  54.4278903  35.4698553   9.0001673  65.7308903
  36.1918553   9.4881673  65.6938903  35.1998553   8.9701673  64.9018903
  35.5368553   9.0681673  65.6028903  38.6998553   4.1711673  62.4658903
  39.5458553   3.9811673  62.5638903  38.3298553   3.3941673  62.3278903
  38.7698553   4.0281673  62.4598903  51.3168553  15.7551673  56.7928903
  52.0108553  15.2881673  56.5448903  50.7778553  15.1571673  57.1298903
  51.3398553  15.5971673  56.8058903  33.5208553   5.5091673  59.1208903
  34.0098553   5.2171673  59.7818903  33.6498553   4.9161673  58.4938903
  33.6118553   5.3781673  59.1258903  48.5558553   8.5311673  65.9718903
  48.5488553   7.7551673  66.3698903  47.7148553   8.7651673  65.9648903
  48.4308553   8.4511673  66.0298903  38.0458553   6.9431673  54.6068903
  37.4358553   6.5381673  55.0808903  37.6598553   7.0611673  53.8338903
  37.8988553   6.9001673  54.5628903  34.8648553  10.0521673  70.0088903
  34.4438553   9.5341673  69.4478903  34.5128553  10.8381673  69.8658903
  34.7508553  10.0921673  69.9048903  49.8118553   8.6021673  63.4088903
  49.5258553   9.0031673  64.1288903  50.6718553   8.5401673  63.5358903
  49.8968553   8.6521673  63.5338903  39.5008553   5.4041673  57.3168903
  39.7728553   6.2301673  57.3838903  38.6378553   5.4791673  57.2208903
  39.4138553   5.5371673  57.3118903  47.4738553   2.5261673  71.9488903
  46.9488553   2.9851673  72.4728903  47.1128553   1.7311673  71.9428903
  47.3428553   2.4761673  72.0248903  50.9428553  14.2351673  63.9378903
  51.2328553  14.4921673  63.1568903  51.6378553  14.3311673  64.4568903
  51.0888553  14.2871673  63.8988903  45.9658553   6.0951673  72.0248903
  46.0388553   6.1991673  72.8878903  45.3318553   6.6531673  71.8038903
  45.8828553   6.1931673  72.1198903  48.2338553   6.4141673  70.3898903
  48.5528553   7.2001673  70.5928903  47.8638553   6.1441673  71.1328903
  48.2268553   6.4901673  70.5298903  47.5478553  12.8381673  55.9198903
  47.8818553  12.0321673  55.9548903  46.7928553  12.7661673  56.3498903
  47.4858553  12.7081673  55.9888903  48.0298553   4.6721673  61.5788903
  47.2848553   4.3491673  61.8968903  48.0318553   5.4981673  61.8588903
  47.9198553   4.7461673  61.6668903  50.9318553   6.9561673  73.1248903
  50.8798553   6.6151673  72.3238903  51.6688553   7.4231673  73.1028903
  51.0328553   6.9751673  73.0028903  50.4698553  10.6321673  69.3308903
  51.0978553  10.0831673  69.0748903  50.4088553  11.1971673  68.6688903
  50.5538553  10.6351673  69.1948903  44.9218553  10.7131673  55.3228903
  45.6058553  10.1991673  55.1538903  44.5048553  10.7591673  54.5578903
  44.9608553  10.6441673  55.1848903  39.6038553  11.8631673  66.6268903
  39.3058553  12.4551673  67.1938903  39.6588553  12.3051673  65.8778903
  39.5678553  12.0161673  66.5998903  37.5828553  10.8131673  70.0248903
  36.7768553  10.5231673  70.1918903  37.4938553  11.6811673  70.0308903
  37.4508553  10.8981673  70.0498903  42.1198553   8.2861673  66.1178903
  42.5958553   8.6601673  66.7458903  41.2968553   8.4201673  66.3768903
  42.0688553   8.3611673  66.2488903  38.8298553   3.8891673  68.8588903
  38.9908553   3.1451673  69.2858903  38.7848553   3.6401673  68.0238903
  38.8468553   3.7421673  68.7988903  41.3838553  15.6791673  61.3458903
  41.9298553  16.3581673  61.3998903  41.0338553  15.7611673  60.5508903
  41.4128553  15.7921673  61.2358903  43.8758553  10.5411673  71.7238903
  44.6328553  10.8271673  71.3978903  43.3288553  10.5931673  71.0458903
  43.9068553  10.5911673  71.5748903  47.7848553  13.0911673  70.2278903
  48.1308553  13.3611673  70.9818903  48.0788553  13.6731673  69.6478903
  47.8798553  13.2171673  70.2538903  49.6478553   5.2371673  55.5668903
  50.0258553   5.9141673  55.1668903  48.8058553   5.4611673  55.5978903
  49.5788553   5.3701673  55.5118903  41.1608553   8.6831673  54.6498903
  40.3558553   8.5061673  54.3648903  41.1278553   9.5341673  54.8418903
  41.0368553   8.7821673  54.6368903  37.0908553   4.7501673  64.7998903
  37.5308553   4.6471673  64.0538903  37.6358553   4.4371673  65.4048903
  37.2358553   4.6891673  64.7788903  45.1068553   3.8521673  70.3918903
  44.4588553   4.3221673  70.7398903  45.6718553   3.7631673  71.0508903
  45.0948553   3.9081673  70.5408903  44.7948553   5.3891673  66.6898903
  45.0968553   5.8091673  67.3928903  44.8308553   4.5491673  66.9218903
  44.8448553   5.3271673  66.8278903  42.2198553  15.5561673  70.6148903
  42.6978553  14.9561673  70.1988903  41.8688553  15.1131673  71.2798903
  42.2388553  15.4021673  70.6518903  47.3428553   4.8361673  58.9418903
  47.5498553   4.6351673  59.7658903  48.0988553   5.1041673  58.5998903
  47.4848553   4.8461673  59.0128903  48.8078553   8.8631673  58.7958903
  49.2838553   8.1341673  58.7478903  47.9868553   8.5771673  58.7198903
  48.7568553   8.7131673  58.7768903  42.2788553  10.7751673  69.6348903
  41.4838553  10.7111673  69.9858903  42.3498553  11.6221673  69.4398903
  42.1718553  10.8901673  69.6578903  38.1088553  16.9821673  64.9518903
  38.1198553  17.0411673  65.8218903  37.6838553  16.2351673  64.8018903
  38.0478553  16.8801673  65.0578903  36.2668553   2.8771673  58.1068903
  36.3928553   2.5481673  57.3088903  35.4548553   2.6281673  58.3058903
  36.1658553   2.7921673  58.0188903  45.0238553  10.0301673  61.1508903
  45.0998553  10.3711673  61.9498903  45.1928553   9.1831673  61.2718903
  45.0598553   9.9551673  61.2868903  42.5458553   9.3041673  60.7158903
  42.2478553   8.9891673  61.4728903  43.2408553   9.7771673  60.9508903
  42.6048553   9.3271673  60.8628903  42.7678553  13.4221673  68.7428903
  43.4548553  13.3081673  69.2678903  42.9018553  14.2131673  68.3988903
  42.8888553  13.5221673  68.7698903  50.9438553   6.0311673  70.5538903
  50.0888553   5.9091673  70.6798903  51.0968553   5.6361673  69.7908903
  50.8398553   5.9541673  70.4598903  45.4568553   6.6961673  69.1298903
  45.2018553   5.9771673  69.5518903  46.2778553   6.8121673  69.3998903
  45.5408553   6.6071673  69.2318903  34.8728553  16.4801673  70.3938903
  34.2188553  15.9111673  70.4918903  34.4978553  17.2531673  70.5448903
  34.7208553  16.5101673  70.4308903  43.3908553   7.8861673  72.3168903
  43.7138553   8.5721673  71.8848903  42.6868553   8.2091673  72.7188903
  43.3338553   8.0351673  72.3118903  46.4748553  16.2601673  63.2458903
  46.0238553  16.9031673  63.6248903  47.1828553  16.1811673  63.7508903
  46.5128553  16.3431673  63.3768903  43.1758553  11.3501673  66.1758903
  42.4818553  11.7521673  66.5188903  43.8528553  11.7831673  66.5148903
  43.1728553  11.4731673  66.2768903  48.5528553  13.9431673  72.7558903
  49.3288553  13.5531673  72.8388903  48.0838553  13.6071673  73.4108903
  48.5978553  13.8361673  72.8648903  36.2438553   4.8881673  68.5228903
  36.6188553   5.5071673  68.0358903  36.9178553   4.4141673  68.8078903
  36.3988553   4.9101673  68.4928903  34.0188553   3.3361673  67.7978903
  34.0958553   3.1671673  66.9448903  34.7648553   3.7421673  67.9948903
  34.1398553   3.3711673  67.7008903  49.5778553   5.9761673  58.2378903
  49.6808553   5.9181673  57.3738903  50.3188553   5.6441673  58.5558903
  49.7028553   5.9191673  58.1568903  43.4978553  12.9411673  59.3448903
  43.2928553  13.7741673  59.1858903  42.7228553  12.5591673  59.4668903
  43.3528553  13.0081673  59.3398903  48.6798553   6.1221673  67.5938903
  48.6778553   5.2591673  67.7178903  48.7468553   6.4461673  68.4008903
  48.6898553   6.0421673  67.7308903  33.4158553   8.5621673  68.0218903
  33.7358553   8.7811673  67.2408903  33.3158553   7.6971673  67.9668903
  33.4478553   8.4671673  67.8988903  34.8718553   4.4981673  54.6398903
  34.1998553   4.5121673  55.1958903  34.9668553   3.6501673  54.4558903
  34.7868553   4.3751673  54.6948903  38.8598553  13.2031673  55.7538903
  39.3008553  13.2831673  56.5018903  38.0548553  12.9871673  56.0118903
  38.8058553  13.1831673  55.9028903  38.1788553   7.8541673  69.4068903
  37.7828553   8.6281673  69.4818903  37.7728553   7.4811673  68.7308903
  38.0608553   7.9131673  69.3178903  47.4548553   6.9081673  63.5208903
  48.1208553   7.4491673  63.6808903  47.1098553   7.2191673  62.7818903
  47.5018553   7.0341673  63.4358903  47.7678553  14.9741673  59.3278903
  47.5938553  14.3201673  59.8778903  48.4808553  14.7031673  58.9048903
  47.8478553  14.8371673  59.3468903  36.1888553  12.2731673  56.3548903
  35.9448553  11.9661673  57.1348903  36.1558553  11.5701673  55.8388903
  36.1478553  12.1241673  56.3938903  39.0078553  10.5181673  55.0978903
  38.1898553  10.2501673  55.2378903  38.9798553  11.3701673  55.2828903
  38.8828553  10.6051673  55.1458903  45.4428553  12.4271673  67.0188903
  45.6488553  12.7281673  67.8108903  45.3818553  13.1491673  66.5338903
  45.4638553  12.5781673  67.0638903  44.9768553  16.6411673  71.2648903
  44.2238553  16.6231673  70.8238903  45.1448553  17.4931673  71.3488903
  44.8908553  16.7641673  71.2118903  40.2138553   5.9081673  70.4348903
  39.8918553   5.3321673  69.8648903  39.8548553   6.6631673  70.1888903
  40.1138553   5.9341673  70.3148903  50.2548553  11.0661673  66.4768903
  50.2228553  10.2041673  66.3418903  49.5618553  11.3681673  66.0428903
  50.1478553  10.9831673  66.3928903  38.6488553  16.2641673  70.6828903
  38.6898553  16.3901673  71.5458903  39.2998553  15.7041673  70.5268903
  38.7508553  16.2001673  70.7878903  48.3598553  14.3261673  65.2738903
  48.8868553  14.2431673  64.5828903  47.9688553  13.5481673  65.3278903
  48.3798553  14.1991673  65.1798903  36.2418553  14.6471673  72.0428903
  36.8368553  15.0781673  72.5148903  35.8778553  15.2711673  71.5538903
  36.2758553  14.8031673  72.0398903  44.2328553   5.5781673  61.9748903
  44.7838553   4.9711673  62.2748903  43.8078553   5.8411673  62.6898903
  44.2518553   5.5271673  62.1238903  34.4808553   4.2281673  61.4608903
  34.1128553   4.5301673  62.1918903  35.0148553   3.5991673  61.7448903
  34.5048553   4.1801673  61.6108903  34.1688553  12.6361673  68.9718903
  33.5948553  13.0521673  69.4808903  34.9018553  13.1011673  69.0668903
  34.1928553  12.7661673  69.0608903  46.2028553   7.4091673  58.5368903
  46.2708553   6.5591673  58.7178903  45.3798553   7.4951673  58.2588903
  46.0908553   7.2961673  58.5228903  35.9548553  15.9031673  57.7468903
  35.8098553  16.0591673  56.9008903  36.8208553  15.9821673  57.8248903
  36.0618553  15.9381673  57.6338903  40.1218553   8.3001673  57.4748903
  40.2218553   8.4391673  56.6198903  40.9398553   8.2401673  57.7708903
  40.2568553   8.3111673  57.3918903  49.2818553  16.3641673  54.9548903
  49.9188553  16.2301673  55.5358903  48.9408553  15.5701673  54.8378903
  49.3258553  16.2271673  55.0228903  49.4768553   8.7821673  71.6878903
  50.1108553   8.6121673  72.2618903  49.8938553   9.1851673  71.0358903
  49.6318553   8.8171673  71.6768903  45.3568553  12.6291673  57.2768903
  45.1058553  12.5011673  58.1028903  45.0398553  11.9341673  56.8558903
  45.2728553  12.5081673  57.3368903  50.1018553   3.3461673  72.4258903
  49.9058553   3.9901673  72.9808903  49.3798553   2.8561673  72.4178903
  49.9668553   3.3691673  72.5068903  50.0008553   4.2871673  65.3968903
  49.1678553   4.5371673  65.3248903  49.9448553   3.4471673  65.6258903
  49.8698553   4.2001673  65.4198903  46.8878553   8.8931673  73.0428903
  47.7588553   8.8571673  73.0068903  46.6688553   9.3131673  72.3108903
  46.9848553   8.9491673  72.9298903  36.6418553  14.7181673  64.2238903
  36.5628553  13.9081673  63.9078903  36.1978553  15.2051673  63.6518903
  36.5648553  14.6701673  64.0928903  42.2428553  10.8371673  56.7068903
  42.9598553  10.4901673  56.3508903  42.2088553  11.6371673  56.3588903
  42.3438553  10.9041673  56.6028903  34.2138553  16.9621673  67.8048903
  34.7068553  16.9061673  68.5228903  34.4018553  16.2291673  67.3698903
  34.3148553  16.8451673  67.8468903  43.4608553   6.3941673  45.6166493
  42.9368553   6.9901673  45.9796493  43.8578553   6.0261673  46.3006493
  43.4418553   6.4281673  45.7716493  33.3298553  10.5341673  41.0726493
  32.8888553  10.6521673  41.8156493  33.0468553   9.7591673  40.7876493
  33.2228553  10.4371673  41.1406493  49.6048553  13.8351673  38.5876493
  50.3058553  13.3161673  38.5836493  49.0178553  13.3901673  38.1186493
  49.6218553  13.6921673  38.5176493  33.0728553   4.3261673  37.5796493
  32.2948553   4.4881673  37.2196493  33.1118553   3.4551673  37.6016493
  32.9638553   4.2211673  37.5296493  36.2118553   9.5891673  36.2516493
  35.8198553   9.2181673  35.5656493  36.1318553   8.9911673  36.8806493
  36.1418553   9.4461673  36.2426493  46.1318553   7.4611673  42.2926493
  46.2118553   7.4651673  41.4236493  45.5478553   6.8291673  42.4416493
  46.0568553   7.3681673  42.1866493  35.8388553  11.2301673  40.1516493
  36.4468553  11.0601673  40.7546493  35.0878553  11.0901673  40.5726493
  35.8178553  11.1841673  40.3026493  34.7298553  14.3211673  36.2286493
  35.1968553  14.4051673  35.4966493  35.1848553  13.7431673  36.6976493
  34.8658553  14.2481673  36.1896493  33.2698553  13.2691673  47.3276493
  33.3988553  12.9891673  48.1436493  32.6598553  12.7281673  47.0186493
  33.1988553  13.1481673  47.4026493  39.8438553  10.7941673  52.3946493
  39.6078553  10.7911673  53.2346493  39.0958553  10.6461673  51.9706493
  39.6978553  10.7711673  52.4556493  34.7158553   7.7901673  41.5296493
  34.2538553   7.3981673  40.9026493  35.4158553   7.2771673  41.6216493
  34.7508553   7.6571673  41.4506493  39.2238553   3.4001673  46.8766493
  39.9018553   3.4181673  46.3276493  39.1788553   2.5641673  47.1216493
  39.3168553   3.2791673  46.8316493  39.8258553  13.9861673  49.6576493
  39.9638553  14.7461673  49.2506493  40.6168553  13.6211673  49.6846493
  39.9628553  14.0451673  49.6016493  36.7168553   5.8901673  41.5526493
  37.5338553   5.7031673  41.7956493  36.2398553   5.2761673  41.9486493
  36.7668553   5.7721673  41.6476493  40.9208553  11.8711673  44.1626493
  41.2688553  11.0721673  44.1926493  41.5858553  12.3751673  43.9076493
  41.0708553  11.8271673  44.1296493  40.9778553  11.3201673  40.3736493
  41.3088553  10.6761673  40.8596493  41.2178553  11.1091673  39.5626493
  41.0618553  11.1941673  40.3256493  42.9458553   5.4511673  51.7126493
  42.0978553   5.3521673  51.5346493  42.9748553   6.1961673  52.1666493
  42.8248553   5.5471673  51.7536493  44.9658553   3.0521673  35.3406493
  44.5158553   3.7331673  35.6476493  45.0798553   2.5481673  36.0436493
  44.9168553   3.0781673  35.4896493  33.1718553   5.5511673  44.5426493
  32.9158553   6.3821673  44.4676493  32.5078553   5.1681673  44.9596493
  33.0358553   5.6171673  44.5936493  33.0818553  15.2611673  42.4426493
  32.4898553  15.8191673  42.1296493  33.5078553  14.9921673  41.7306493
  33.0578553  15.3031673  42.2916493  38.9218553  13.1051673  39.9226493
  38.3428553  12.8301673  40.5146493  39.5458553  12.4961673  39.9476493
  38.9288553  12.9751673  40.0136493  45.0648553  15.3931673  37.4446493
  45.7918553  15.8651673  37.5466493  45.2938553  14.5991673  37.7246493
  45.2068553  15.3461673  37.5016493  43.2328553  15.7851673  39.4346493
  43.4468553  16.3121673  40.0966493  43.9998553  15.6111673  39.0556493
  43.3778553  15.8371673  39.4766493  39.5068553   2.5011673  54.3316493
  39.6238553   2.0471673  53.5956493  39.7948553   3.2991673  54.1286493
  39.5668553   2.5521673  54.1926493  34.6268553  13.9311673  40.3736493
  35.2828553  13.3561673  40.3886493  35.0158553  14.6801673  40.1526493
  34.7818553  13.9561673  40.3436493  50.3598553   3.0251673  41.6356493
  50.0138553   3.7031673  42.0616493  49.7238553   2.4271673  41.6516493
  50.2148553   3.0371673  41.7006493  45.6718553  15.7951673  47.7396493
  46.4158553  16.2511673  47.7296493  45.5508553  15.5811673  46.9026493
  45.7638553  15.8311673  47.6146493  35.4448553  12.4181673  43.8736493
  35.8678553  12.0621673  43.1996493  35.7688553  11.9961673  44.5656493
  35.5548553  12.3031673  43.8766493  38.6758553  15.2701673  43.1696493
  39.5198553  15.3741673  42.9746493  38.3788553  16.0881673  43.2376493
  38.7568553  15.4061673  43.1506493  42.4828553   4.6671673  41.2566493
  42.7698553   4.4351673  40.4666493  43.2148553   4.7461673  41.7256493
  42.6328553   4.6441673  41.2096493  43.2048553   5.0061673  36.3776493
  43.4858553   5.7941673  36.6266493  42.4288553   5.1711673  36.0146493
  43.1318553   5.1471673  36.3606493  47.2458553  16.9801673  37.8446493
  47.9108553  16.8321673  37.2996493  47.6058553  16.8971673  38.6346493
  47.3978553  16.9461673  37.8806493  37.6738553  16.4891673  48.9096493
  37.9658553  16.4221673  49.7296493  37.0478553  15.8841673  48.8646493
  37.6248553  16.3901673  49.0246493  32.5878553   2.6461673  50.9016493
  32.5838553   3.2331673  51.5476493  33.1818553   2.9581673  50.3446493
  32.6748553   2.7791673  50.9146493  44.9258553  12.9801673  51.4436493
  44.8918553  13.3621673  52.2276493  45.7798553  12.9381673  51.2726493
  45.0468553  13.0301673  51.5346493  42.0638553  13.1771673  36.1936493
  41.8828553  13.7221673  36.8506493  42.8298553  13.4671673  35.8926493
  42.1498553  13.3011673  36.2466493  35.6668553  14.6511673  48.0316493
  34.9688553  14.1431673  48.1576493  35.9268553  14.4461673  47.2236493
  35.6018553  14.5461673  47.9306493  42.8288553   3.4491673  38.5616493
  42.3208553   2.7871673  38.3076493  42.8808553   3.9531673  37.8516493
  42.7618553   3.4261673  38.4196493  43.3778553  16.1441673  48.9416493
  44.1458553  16.0641673  48.5356493  42.7948553  16.0231673  48.3036493
  43.4048553  16.1141673  48.7876493  49.6548553  16.7471673  41.8426493
  49.1998553  17.4641673  42.0436493  49.0408553  16.1761673  41.6006493
  49.4968553  16.7691673  41.8366493  41.4268553   2.7571673  42.9746493
  41.5008553   3.3251673  42.3166493  41.5478553   3.2491673  43.6846493
  41.4548553   2.9141673  42.9826493  46.6518553  12.5921673  41.3866493
  47.3528553  12.1101673  41.5756493  45.9918553  12.0231673  41.4316493
  46.6578553  12.4371673  41.4206493  37.0278553  13.5021673  50.5986493
  37.8688553  13.5651673  50.3766493  36.9908553  13.8991673  51.3746493
  37.1468553  13.5701673  50.6806493  38.9908553   9.0131673  45.3476493
  39.1628553   8.8031673  46.1766493  38.3358553   8.4791673  45.1316493
  38.9198553   8.9031673  45.4386493  45.2188553   2.9271673  48.8626493
  45.1238553   3.2461673  49.6686493  44.6258553   2.2881673  48.8246493
  45.1168553   2.8791673  48.9766493  39.7408553   8.9511673  47.9376493
  39.7938553   9.7981673  48.1396493  39.4558553   8.5811673  48.6746493
  39.7068553   9.0211673  48.0756493  45.9178553   9.6461673  47.0676493
  45.4038553   9.2341673  47.6386493  45.7918553  10.4901673  47.2486493
  45.8238553   9.7101673  47.1786493  32.5618553  13.3221673  54.1486493
  33.3178553  13.6711673  54.4066493  32.7388553  12.4691673  54.0916493
  32.6998553  13.2471673  54.1786493  48.9388553   3.1071673  50.0066493
  49.7108553   2.8821673  50.3436493  48.4638553   3.3241673  50.7066493
  48.9828553   3.1061673  50.1596493  36.4828553   2.3901673  42.9766493
  36.7548553   1.9601673  42.2686493  36.3068553   1.7541673  43.5476493
  36.4968553   2.2331673  42.9566493  49.1708553  10.0851673  37.1946493
  49.2898553   9.7981673  38.0096493  49.9778553  10.1061673  36.8646493
  49.3068553  10.0461673  37.2666493  36.3068553   9.8171673  42.5256493
  37.1578553   9.7371673  42.3526493  35.9498553   9.1351673  42.1136493
  36.3798553   9.7041673  42.4386493  35.0738553  16.5421673  43.7626493
  34.4008553  16.0441673  43.5176493  35.4768553  16.7271673  43.0116493
  35.0338553  16.4961673  43.6156493  34.6238553   3.4921673  46.0586493
  35.4668553   3.7121673  46.0156493  34.2348553   4.0651673  45.5276493
  34.6908553   3.6091673  45.9736493  51.4048553  14.5941673  51.4486493
  50.7228553  14.9041673  51.0016493  51.0358553  14.1361673  52.0936493
  51.2488553  14.5721673  51.4776493  47.0658553   6.6221673  36.7796493
  46.8458553   7.3531673  36.3576493  46.6178553   6.6731673  37.5266493
  46.9668553   6.7371673  36.8276493  38.6748553   9.8241673  40.7606493
  39.3878553  10.3191673  40.8506493  38.8968553   9.2571673  40.1346493
  38.8128553   9.8131673  40.6816493  32.8308553  11.4671673  44.0806493
  32.1638553  11.9551673  44.3566493  33.5108553  12.0121673  44.1096493
  32.8328553  11.6191673  44.1256493  40.4778553   5.1771673  54.1766493
  39.9938553   5.7541673  54.6186493  40.4498553   5.4721673  53.3556493
  40.4018553   5.3061673  54.1206493  51.5758553   5.8611673  48.7886493
  51.7908553   5.0611673  48.5126493  50.7258553   5.9211673  48.5996493
  51.4818553   5.7521673  48.7196493  32.8968553   8.1511673  39.1836493
  32.7118553   7.3121673  39.3356493  33.5558553   8.1151673  38.6136493
  32.9668553   8.0221673  39.1216493  43.1978553  13.5271673  43.0876493
  42.6748553  14.1611673  42.7946493  43.5078553  13.1631673  42.3586493
  43.1658553  13.5671673  42.9366493  33.0688553  12.3151673  38.7586493
  33.6208553  12.8841673  39.1226493  32.8368553  11.8001673  39.4236493
  33.1158553  12.3231673  38.9106493  37.2728553  11.3151673  45.8476493
  37.7398553  11.6041673  46.5256493  37.8448553  10.8371673  45.3936493
  37.4268553  11.2871673  45.8806493  45.7088553   3.3291673  43.5846493
  46.0528553   3.4811673  44.3716493  45.2558553   2.5911673  43.6976493
  45.6928553   3.2421673  43.7176493  32.8988553  10.7641673  36.3866493
  33.6548553  10.3321673  36.4446493  32.9138553  11.2961673  37.0776493
  33.0128553  10.7791673  36.4976493  33.8388553   8.9851673  44.3916493
  34.2698553   8.8561673  43.6446493  33.6338553   9.8331673  44.3656493
  33.8718553   9.0911673  44.2776493  40.1848553   2.5491673  38.0416493
  40.1828553   2.4321673  37.1766493  40.0038553   3.3971673  38.1336493
  40.1578553   2.6571673  37.9276493  49.2388553  14.9761673  49.5386493
  48.5678553  15.4901673  49.7566493  49.3018553  15.0761673  48.6746493
  49.1488553  15.0671673  49.4436493  37.9228553  12.5011673  42.6736493
  38.0488553  13.3441673  42.8606493  38.5908553  12.1021673  43.0696493
  38.0408553  12.5671673  42.7596493  36.0528553   5.9841673  52.5356493
  35.5168553   5.4781673  53.0036493  36.0728553   5.5941673  51.7556493
  35.9758553   5.8511673  52.4896493  36.5378553   5.3811673  37.6756493
  36.4098553   4.9331673  38.4136493  35.9558553   5.0391673  37.1236493
  36.4328553   5.2641673  37.7036493  36.7048553   7.2111673  44.2746493
  35.9238553   7.1521673  43.8916493  36.7768553   6.4591673  44.7116493
  36.5998553   7.0921673  44.2826493  37.1348553   6.9481673  47.7426493
  37.1598553   6.2731673  47.1916493  36.4888553   7.4441673  47.4306493
  37.0438553   6.9211673  47.6156493  47.0298553   4.6611673  46.1386493
  46.3678553   4.9891673  46.6016493  47.2168553   5.2951673  45.5696493
  46.9598553   4.8031673  46.1226493  41.2348553  15.7251673  47.1346493
  40.9578553  15.0841673  46.6116493  41.0268553  16.4511673  46.6966493
  41.1638553  15.7381673  46.9926493  45.2228553   2.6301673  39.6496493
  45.7128553   3.3471673  39.5726493  44.4328553   2.8911673  39.3866493
  45.1788553   2.7741673  39.5996493  34.9338553   8.3031673  53.3016493
  34.8968553   8.8041673  52.5876493  35.2648553   7.5511673  53.0066493
  34.9768553   8.2651673  53.1526493  46.5368553  10.5081673  51.5596493
  47.0208553  11.2261673  51.6576493  46.9308553  10.0811673  50.9086493
  46.6668553  10.5511673  51.4776493  40.8328553  13.3531673  52.7366493
  41.1868553  13.1751673  53.5136493  40.3968553  12.6241673  52.5376493
  40.8208553  13.2191673  52.8226493  41.8048553   4.1001673  45.3746493
  42.2848553   4.7991673  45.5826493  42.1778553   3.4531673  45.8256493
  41.9308553   4.1081673  45.4716493  43.9938553   7.2691673  37.6486493
  43.9858553   7.9911673  37.1586493  43.3548553   7.4041673  38.2256493
  43.8988553   7.3961673  37.6616493  48.9658553  11.1391673  41.6296493
  49.3218553  10.7891673  42.3446493  48.9578553  10.4781673  41.0596493
  49.0178553  10.9891673  41.6506493  45.0108553  14.2051673  45.4736493
  44.4078553  13.9091673  44.9166493  45.5558553  14.6571673  44.9646493
  45.0018553  14.2281673  45.3156493  45.0238553  11.0561673  44.8736493
  44.2268553  11.2801673  45.1476493  45.2818553  10.4621673  45.4586493
  44.9438553  11.0011673  45.0006493  38.9158553  15.8681673  39.3216493
  38.7688553  15.0921673  39.6926493  39.6048553  15.7211673  38.8066493
  38.9958553  15.7311673  39.3006493  41.2078553  15.3841673  37.7236493
  41.8298553  15.5471673  38.3136493  41.2438553  16.0751673  37.1916493
  41.3048553  15.5101673  37.7326493  48.2838553   9.0541673  49.7196493
  48.3388553   9.1791673  48.8576493  49.0368553   9.3741673  50.0216493
  48.4028553   9.1191673  49.6366493  44.4748553  14.4031673  53.9966493
  44.6388553  14.6861673  54.8056493  44.7378553  15.0641673  53.4916493
  44.5378553  14.5431673  54.0416493  35.7088553   7.9181673  38.5526493
  36.0328553   7.1391673  38.3306493  36.3548553   8.2861673  39.0076493
  35.8518553   7.8571673  38.5866493  44.0148553   8.8601673  49.3196493
  43.8598553   9.4701673  49.9236493  44.5488553   8.3021673  49.7256493
  44.0708553   8.8681673  49.4686493  42.3988553   7.2601673  39.9776493
  42.4578553   7.9101673  40.5566493  42.2098553   6.5641673  40.4686493
  42.3798553   7.2531673  40.1356493  47.6248553  11.5891673  45.8466493
  47.1458553  11.8871673  45.1806493  47.2688553  10.8131673  46.0246493
  47.5018553  11.5181673  45.7746493  36.8948553   1.7771673  36.4896493
  36.3838553   1.8301673  35.7836493  37.6788553   2.0171673  36.1936493
  36.9348553   1.8201673  36.3416493  41.6218553   9.3071673  44.4086493
  40.7748553   9.1131673  44.4896493  41.9458553   9.1421673  45.2016493
  41.5438553   9.2541673  44.5376493  38.3738553  16.0371673  35.2946493
  38.8128553  15.3401673  35.5826493  38.5808553  16.6611673  35.8676493
  38.4698553  16.0261673  35.4216493  35.4698553   9.0001673  46.7246493
  36.1918553   9.4881673  46.6876493  35.1998553   8.9701673  45.8956493
  35.5368553   9.0681673  46.5966493  38.6998553   4.1711673  43.4596493
  39.5458553   3.9811673  43.5576493  38.3298553   3.3941673  43.3216493
  38.7698553   4.0281673  43.4536493  51.3168553  15.7551673  37.7866493
  52.0108553  15.2881673  37.5386493  50.7778553  15.1571673  38.1236493
  51.3398553  15.5971673  37.7996493  33.5208553   5.5091673  40.1146493
  34.0098553   5.2171673  40.7756493  33.6498553   4.9161673  39.4876493
  33.6118553   5.3781673  40.1196493  48.5558553   8.5311673  46.9656493
  48.5488553   7.7551673  47.3636493  47.7148553   8.7651673  46.9586493
  48.4308553   8.4511673  47.0236493  38.0458553   6.9431673  35.6006493
  37.4358553   6.5381673  36.0746493  37.6598553   7.0611673  34.8276493
  37.8988553   6.9001673  35.5566493  34.8648553  10.0521673  51.0026493
  34.4438553   9.5341673  50.4416493  34.5128553  10.8381673  50.8596493
  34.7508553  10.0921673  50.8986493  49.8118553   8.6021673  44.4026493
  49.5258553   9.0031673  45.1226493  50.6718553   8.5401673  44.5296493
  49.8968553   8.6521673  44.5276493  39.5008553   5.4041673  38.3106493
  39.7728553   6.2301673  38.3776493  38.6378553   5.4791673  38.2146493
  39.4138553   5.5371673  38.3056493  47.4738553   2.5261673  52.9426493
  46.9488553   2.9851673  53.4666493  47.1128553   1.7311673  52.9366493
  47.3428553   2.4761673  53.0186493  50.9428553  14.2351673  44.9316493
  51.2328553  14.4921673  44.1506493  51.6378553  14.3311673  45.4506493
  51.0888553  14.2871673  44.8926493  45.9658553   6.0951673  53.0186493
  46.0388553   6.1991673  53.8816493  45.3318553   6.6531673  52.7976493
  45.8828553   6.1931673  53.1136493  48.2338553   6.4141673  51.3836493
  48.5528553   7.2001673  51.5866493  47.8638553   6.1441673  52.1266493
  48.2268553   6.4901673  51.5236493  47.5478553  12.8381673  36.9136493
  47.8818553  12.0321673  36.9486493  46.7928553  12.7661673  37.3436493
  47.4858553  12.7081673  36.9826493  48.0298553   4.6721673  42.5726493
  47.2848553   4.3491673  42.8906493  48.0318553   5.4981673  42.8526493
  47.9198553   4.7461673  42.6606493  50.9318553   6.9561673  54.1186493
  50.8798553   6.6151673  53.3176493  51.6688553   7.4231673  54.0966493
  51.0328553   6.9751673  53.9966493  50.4698553  10.6321673  50.3246493
  51.0978553  10.0831673  50.0686493  50.4088553  11.1971673  49.6626493
  50.5538553  10.6351673  50.1886493  44.9218553  10.7131673  36.3166493
  45.6058553  10.1991673  36.1476493  44.5048553  10.7591673  35.5516493
  44.9608553  10.6441673  36.1786493  39.6038553  11.8631673  47.6206493
  39.3058553  12.4551673  48.1876493  39.6588553  12.3051673  46.8716493
  39.5678553  12.0161673  47.5936493  37.5828553  10.8131673  51.0186493
  36.7768553  10.5231673  51.1856493  37.4938553  11.6811673  51.0246493
  37.4508553  10.8981673  51.0436493  42.1198553   8.2861673  47.1116493
  42.5958553   8.6601673  47.7396493  41.2968553   8.4201673  47.3706493
  42.0688553   8.3611673  47.2426493  38.8298553   3.8891673  49.8526493
  38.9908553   3.1451673  50.2796493  38.7848553   3.6401673  49.0176493
  38.8468553   3.7421673  49.7926493  41.3838553  15.6791673  42.3396493
  41.9298553  16.3581673  42.3936493  41.0338553  15.7611673  41.5446493
  41.4128553  15.7921673  42.2296493  39.5668553  13.9071673  45.7286493
  38.9428553  14.4891673  45.5466493  39.8148553  13.6211673  44.9426493
  39.5108553  13.9511673  45.5856493  43.8758553  10.5411673  52.7176493
  44.6328553  10.8271673  52.3916493  43.3288553  10.5931673  52.0396493
  43.9068553  10.5911673  52.5686493  47.7848553  13.0911673  51.2216493
  48.1308553  13.3611673  51.9756493  48.0788553  13.6731673  50.6416493
  47.8798553  13.2171673  51.2476493  49.6478553   5.2371673  36.5606493
  50.0258553   5.9141673  36.1606493  48.8058553   5.4611673  36.5916493
  49.5788553   5.3701673  36.5056493  41.1608553   8.6831673  35.6436493
  40.3558553   8.5061673  35.3586493  41.1278553   9.5341673  35.8356493
  41.0368553   8.7821673  35.6306493  37.0908553   4.7501673  45.7936493
  37.5308553   4.6471673  45.0476493  37.6358553   4.4371673  46.3986493
  37.2358553   4.6891673  45.7726493  45.1068553   3.8521673  51.3856493
  44.4588553   4.3221673  51.7336493  45.6718553   3.7631673  52.0446493
  45.0948553   3.9081673  51.5346493  44.7948553   5.3891673  47.6836493
  45.0968553   5.8091673  48.3866493  44.8308553   4.5491673  47.9156493
  44.8448553   5.3271673  47.8216493  42.2198553  15.5561673  51.6086493
  42.6978553  14.9561673  51.1926493  41.8688553  15.1131673  52.2736493
  42.2388553  15.4021673  51.6456493  47.3428553   4.8361673  39.9356493
  47.5498553   4.6351673  40.7596493  48.0988553   5.1041673  39.5936493
  47.4848553   4.8461673  40.0066493  48.8078553   8.8631673  39.7896493
  49.2838553   8.1341673  39.7416493  47.9868553   8.5771673  39.7136493
  48.7568553   8.7131673  39.7706493  42.2788553  10.7751673  50.6286493
  41.4838553  10.7111673  50.9796493  42.3498553  11.6221673  50.4336493
  42.1718553  10.8901673  50.6516493  38.1088553  16.9821673  45.9456493
  38.1198553  17.0411673  46.8156493  37.6838553  16.2351673  45.7956493
  38.0478553  16.8801673  46.0516493  36.2668553   2.8771673  39.1006493
  36.3928553   2.5481673  38.3026493  35.4548553   2.6281673  39.2996493
  36.1658553   2.7921673  39.0126493  45.0238553  10.0301673  42.1446493
  45.0998553  10.3711673  42.9436493  45.1928553   9.1831673  42.2656493
  45.0598553   9.9551673  42.2806493  42.5458553   9.3041673  41.7096493
  42.2478553   8.9891673  42.4666493  43.2408553   9.7771673  41.9446493
  42.6048553   9.3271673  41.8566493  42.7678553  13.4221673  49.7366493
  43.4548553  13.3081673  50.2616493  42.9018553  14.2131673  49.3926493
  42.8888553  13.5221673  49.7636493  50.9438553   6.0311673  51.5476493
  50.0888553   5.9091673  51.6736493  51.0968553   5.6361673  50.7846493
  50.8398553   5.9541673  51.4536493  45.4568553   6.6961673  50.1236493
  45.2018553   5.9771673  50.5456493  46.2778553   6.8121673  50.3936493
  45.5408553   6.6071673  50.2256493  34.8728553  16.4801673  51.3876493
  34.2188553  15.9111673  51.4856493  34.4978553  17.2531673  51.5386493
  34.7208553  16.5101673  51.4246493  43.3908553   7.8861673  53.3106493
  43.7138553   8.5721673  52.8786493  42.6868553   8.2091673  53.7126493
  43.3338553   8.0351673  53.3056493  46.4748553  16.2601673  44.2396493
  46.0238553  16.9031673  44.6186493  47.1828553  16.1811673  44.7446493
  46.5128553  16.3431673  44.3706493  43.1758553  11.3501673  47.1696493
  42.4818553  11.7521673  47.5126493  43.8528553  11.7831673  47.5086493
  43.1728553  11.4731673  47.2706493  48.5528553  13.9431673  53.7496493
  49.3288553  13.5531673  53.8326493  48.0838553  13.6071673  54.4046493
  48.5978553  13.8361673  53.8586493  36.2438553   4.8881673  49.5166493
  36.6188553   5.5071673  49.0296493  36.9178553   4.4141673  49.8016493
  36.3988553   4.9101673  49.4866493  34.0188553   3.3361673  48.7916493
  34.0958553   3.1671673  47.9386493  34.7648553   3.7421673  48.9886493
  34.1398553   3.3711673  48.6946493  49.5778553   5.9761673  39.2316493
  49.6808553   5.9181673  38.3676493  50.3188553   5.6441673  39.5496493
  49.7028553   5.9191673  39.1506493  43.4978553  12.9411673  40.3386493
  43.2928553  13.7741673  40.1796493  42.7228553  12.5591673  40.4606493
  43.3528553  13.0081673  40.3336493  48.6798553   6.1221673  48.5876493
  48.6778553   5.2591673  48.7116493  48.7468553   6.4461673  49.3946493
  48.6898553   6.0421673  48.7246493  33.4158553   8.5621673  49.0156493
  33.7358553   8.7811673  48.2346493  33.3158553   7.6971673  48.9606493
  33.4478553   8.4671673  48.8926493  34.8718553   4.4981673  35.6336493
  34.1998553   4.5121673  36.1896493  34.9668553   3.6501673  35.4496493
  34.7868553   4.3751673  35.6886493  38.8598553  13.2031673  36.7476493
  39.3008553  13.2831673  37.4956493  38.0548553  12.9871673  37.0056493
  38.8058553  13.1831673  36.8966493  38.1788553   7.8541673  50.4006493
  37.7828553   8.6281673  50.4756493  37.7728553   7.4811673  49.7246493
  38.0608553   7.9131673  50.3116493  47.4548553   6.9081673  44.5146493
  48.1208553   7.4491673  44.6746493  47.1098553   7.2191673  43.7756493
  47.5018553   7.0341673  44.4296493  47.7678553  14.9741673  40.3216493
  47.5938553  14.3201673  40.8716493  48.4808553  14.7031673  39.8986493
  47.8478553  14.8371673  40.3406493  36.1888553  12.2731673  37.3486493
  35.9448553  11.9661673  38.1286493  36.1558553  11.5701673  36.8326493
  36.1478553  12.1241673  37.3876493  39.0078553  10.5181673  36.0916493
  38.1898553  10.2501673  36.2316493  38.9798553  11.3701673  36.2766493
  38.8828553  10.6051673  36.1396493  45.4428553  12.4271673  48.0126493
  45.6488553  12.7281673  48.8046493  45.3818553  13.1491673  47.5276493
  45.4638553  12.5781673  48.0576493  44.9768553  16.6411673  52.2586493
  44.2238553  16.6231673  51.8176493  45.1448553  17.4931673  52.3426493
  44.8908553  16.7641673  52.2056493  40.2138553   5.9081673  51.4286493
  39.8918553   5.3321673  50.8586493  39.8548553   6.6631673  51.1826493
  40.1138553   5.9341673  51.3086493  50.2548553  11.0661673  47.4706493
  50.2228553  10.2041673  47.3356493  49.5618553  11.3681673  47.0366493
  50.1478553  10.9831673  47.3866493  38.6488553  16.2641673  51.6766493
  38.6898553  16.3901673  52.5396493  39.2998553  15.7041673  51.5206493
  38.7508553  16.2001673  51.7816493  48.3598553  14.3261673  46.2676493
  48.8868553  14.2431673  45.5766493  47.9688553  13.5481673  46.3216493
  48.3798553  14.1991673  46.1736493  36.2418553  14.6471673  53.0366493
  36.8368553  15.0781673  53.5086493  35.8778553  15.2711673  52.5476493
  36.2758553  14.8031673  53.0336493  44.2328553   5.5781673  42.9686493
  44.7838553   4.9711673  43.2686493  43.8078553   5.8411673  43.6836493
  44.2518553   5.5271673  43.1176493  34.4808553   4.2281673  42.4546493
  34.1128553   4.5301673  43.1856493  35.0148553   3.5991673  42.7386493
  34.5048553   4.1801673  42.6046493  34.1688553  12.6361673  49.9656493
  33.5948553  13.0521673  50.4746493  34.9018553  13.1011673  50.0606493
  34.1928553  12.7661673  50.0546493  46.2028553   7.4091673  39.5306493
  46.2708553   6.5591673  39.7116493  45.3798553   7.4951673  39.2526493
  46.0908553   7.2961673  39.5166493  35.9548553  15.9031673  38.7406493
  35.8098553  16.0591673  37.8946493  36.8208553  15.9821673  38.8186493
  36.0618553  15.9381673  38.6276493  40.1218553   8.3001673  38.4686493
  40.2218553   8.4391673  37.6136493  40.9398553   8.2401673  38.7646493
  40.2568553   8.3111673  38.3856493  49.2818553  16.3641673  35.9486493
  49.9188553  16.2301673  36.5296493  48.9408553  15.5701673  35.8316493
  49.3258553  16.2271673  36.0166493  49.4768553   8.7821673  52.6816493
  50.1108553   8.6121673  53.2556493  49.8938553   9.1851673  52.0296493
  49.6318553   8.8171673  52.6706493  45.3568553  12.6291673  38.2706493
  45.1058553  12.5011673  39.0966493  45.0398553  11.9341673  37.8496493
  45.2728553  12.5081673  38.3306493  50.1018553   3.3461673  53.4196493
  49.9058553   3.9901673  53.9746493  49.3798553   2.8561673  53.4116493
  49.9668553   3.3691673  53.5006493  50.0008553   4.2871673  46.3906493
  49.1678553   4.5371673  46.3186493  49.9448553   3.4471673  46.6196493
  49.8698553   4.2001673  46.4136493  46.8878553   8.8931673  54.0366493
  47.7588553   8.8571673  54.0006493  46.6688553   9.3131673  53.3046493
  46.9848553   8.9491673  53.9236493  36.6418553  14.7181673  45.2176493
  36.5628553  13.9081673  44.9016493  36.1978553  15.2051673  44.6456493
  36.5648553  14.6701673  45.0866493  42.2428553  10.8371673  37.7006493
  42.9598553  10.4901673  37.3446493  42.2088553  11.6371673  37.3526493
  42.3438553  10.9041673  37.5966493  34.2138553  16.9621673  48.7986493
  34.7068553  16.9061673  49.5166493  34.4018553  16.2291673  48.3636493
  34.3148553  16.8451673  48.8406493  43.4608553   6.3941673  26.6104083
  42.9368553   6.9901673  26.9734083  43.8578553   6.0261673  27.2944083
  43.4418553   6.4281673  26.7654083  33.3298553  10.5341673  22.0664083
  32.8888553  10.6521673  22.8094083  33.0468553   9.7591673  21.7814083
  33.2228553  10.4371673  22.1344083  49.6048553  13.8351673  19.5814083
  50.3058553  13.3161673  19.5774083  49.0178553  13.3901673  19.1124083
  49.6218553  13.6921673  19.5114083  33.0728553   4.3261673  18.5734083
  32.2948553   4.4881673  18.2134083  33.1118553   3.4551673  18.5954083
  32.9638553   4.2211673  18.5234083  36.2118553   9.5891673  17.2454083
  35.8198553   9.2181673  16.5594083  36.1318553   8.9911673  17.8744083
  36.1418553   9.4461673  17.2364083  46.1318553   7.4611673  23.2864083
  46.2118553   7.4651673  22.4174083  45.5478553   6.8291673  23.4354083
  46.0568553   7.3681673  23.1804083  35.8388553  11.2301673  21.1454083
  36.4468553  11.0601673  21.7484083  35.0878553  11.0901673  21.5664083
  35.8178553  11.1841673  21.2964083  34.7298553  14.3211673  17.2224083
  35.1968553  14.4051673  16.4904083  35.1848553  13.7431673  17.6914083
  34.8658553  14.2481673  17.1834083  33.2698553  13.2691673  28.3214083
  33.3988553  12.9891673  29.1374083  32.6598553  12.7281673  28.0124083
  33.1988553  13.1481673  28.3964083  39.8438553  10.7941673  33.3884083
  39.6078553  10.7911673  34.2284083  39.0958553  10.6461673  32.9644083
  39.6978553  10.7711673  33.4494083  34.7158553   7.7901673  22.5234083
  34.2538553   7.3981673  21.8964083  35.4158553   7.2771673  22.6154083
  34.7508553   7.6571673  22.4444083  39.2238553   3.4001673  27.8704083
  39.9018553   3.4181673  27.3214083  39.1788553   2.5641673  28.1154083
  39.3168553   3.2791673  27.8254083  39.8258553  13.9861673  30.6514083
  39.9638553  14.7461673  30.2444083  40.6168553  13.6211673  30.6784083
  39.9628553  14.0451673  30.5954083  36.7168553   5.8901673  22.5464083
  37.5338553   5.7031673  22.7894083  36.2398553   5.2761673  22.9424083
  36.7668553   5.7721673  22.6414083  40.9208553  11.8711673  25.1564083
  41.2688553  11.0721673  25.1864083  41.5858553  12.3751673  24.9014083
  41.0708553  11.8271673  25.1234083  40.9778553  11.3201673  21.3674083
  41.3088553  10.6761673  21.8534083  41.2178553  11.1091673  20.5564083
  41.0618553  11.1941673  21.3194083  42.9458553   5.4511673  32.7064083
  42.0978553   5.3521673  32.5284083  42.9748553   6.1961673  33.1604083
  42.8248553   5.5471673  32.7474083  44.9658553   3.0521673  16.3344083
  44.5158553   3.7331673  16.6414083  45.0798553   2.5481673  17.0374083
  44.9168553   3.0781673  16.4834083  33.1718553   5.5511673  25.5364083
  32.9158553   6.3821673  25.4614083  32.5078553   5.1681673  25.9534083
  33.0358553   5.6171673  25.5874083  33.0818553  15.2611673  23.4364083
  32.4898553  15.8191673  23.1234083  33.5078553  14.9921673  22.7244083
  33.0578553  15.3031673  23.2854083  38.9218553  13.1051673  20.9164083
  38.3428553  12.8301673  21.5084083  39.5458553  12.4961673  20.9414083
  38.9288553  12.9751673  21.0074083  45.0648553  15.3931673  18.4384083
  45.7918553  15.8651673  18.5404083  45.2938553  14.5991673  18.7184083
  45.2068553  15.3461673  18.4954083  43.2328553  15.7851673  20.4284083
  43.4468553  16.3121673  21.0904083  43.9998553  15.6111673  20.0494083
  43.3778553  15.8371673  20.4704083  39.5068553   2.5011673  35.3254083
  39.6238553   2.0471673  34.5894083  39.7948553   3.2991673  35.1224083
  39.5668553   2.5521673  35.1864083  34.6268553  13.9311673  21.3674083
  35.2828553  13.3561673  21.3824083  35.0158553  14.6801673  21.1464083
  34.7818553  13.9561673  21.3374083  50.3598553   3.0251673  22.6294083
  50.0138553   3.7031673  23.0554083  49.7238553   2.4271673  22.6454083
  50.2148553   3.0371673  22.6944083  45.6718553  15.7951673  28.7334083
  46.4158553  16.2511673  28.7234083  45.5508553  15.5811673  27.8964083
  45.7638553  15.8311673  28.6084083  35.4448553  12.4181673  24.8674083
  35.8678553  12.0621673  24.1934083  35.7688553  11.9961673  25.5594083
  35.5548553  12.3031673  24.8704083  38.6758553  15.2701673  24.1634083
  39.5198553  15.3741673  23.9684083  38.3788553  16.0881673  24.2314083
  38.7568553  15.4061673  24.1444083  42.4828553   4.6671673  22.2504083
  42.7698553   4.4351673  21.4604083  43.2148553   4.7461673  22.7194083
  42.6328553   4.6441673  22.2034083  43.2048553   5.0061673  17.3714083
  43.4858553   5.7941673  17.6204083  42.4288553   5.1711673  17.0084083
  43.1318553   5.1471673  17.3544083  47.2458553  16.9801673  18.8384083
  47.9108553  16.8321673  18.2934083  47.6058553  16.8971673  19.6284083
  47.3978553  16.9461673  18.8744083  37.6738553  16.4891673  29.9034083
  37.9658553  16.4221673  30.7234083  37.0478553  15.8841673  29.8584083
  37.6248553  16.3901673  30.0184083  32.5878553   2.6461673  31.8954083
  32.5838553   3.2331673  32.5414083  33.1818553   2.9581673  31.3384083
  32.6748553   2.7791673  31.9084083  44.9258553  12.9801673  32.4374083
  44.8918553  13.3621673  33.2214083  45.7798553  12.9381673  32.2664083
  45.0468553  13.0301673  32.5284083  42.0638553  13.1771673  17.1874083
  41.8828553  13.7221673  17.8444083  42.8298553  13.4671673  16.8864083
  42.1498553  13.3011673  17.2404083  35.6668553  14.6511673  29.0254083
  34.9688553  14.1431673  29.1514083  35.9268553  14.4461673  28.2174083
  35.6018553  14.5461673  28.9244083  42.8288553   3.4491673  19.5554083
  42.3208553   2.7871673  19.3014083  42.8808553   3.9531673  18.8454083
  42.7618553   3.4261673  19.4134083  43.3778553  16.1441673  29.9354083
  44.1458553  16.0641673  29.5294083  42.7948553  16.0231673  29.2974083
  43.4048553  16.1141673  29.7814083  49.6548553  16.7471673  22.8364083
  49.1998553  17.4641673  23.0374083  49.0408553  16.1761673  22.5944083
  49.4968553  16.7691673  22.8304083  41.4268553   2.7571673  23.9684083
  41.5008553   3.3251673  23.3104083  41.5478553   3.2491673  24.6784083
  41.4548553   2.9141673  23.9764083  46.6518553  12.5921673  22.3804083
  47.3528553  12.1101673  22.5694083  45.9918553  12.0231673  22.4254083
  46.6578553  12.4371673  22.4144083  37.0278553  13.5021673  31.5924083
  37.8688553  13.5651673  31.3704083  36.9908553  13.8991673  32.3684083
  37.1468553  13.5701673  31.6744083  38.9908553   9.0131673  26.3414083
  39.1628553   8.8031673  27.1704083  38.3358553   8.4791673  26.1254083
  38.9198553   8.9031673  26.4324083  45.2188553   2.9271673  29.8564083
  45.1238553   3.2461673  30.6624083  44.6258553   2.2881673  29.8184083
  45.1168553   2.8791673  29.9704083  39.7408553   8.9511673  28.9314083
  39.7938553   9.7981673  29.1334083  39.4558553   8.5811673  29.6684083
  39.7068553   9.0211673  29.0694083  45.9178553   9.6461673  28.0614083
  45.4038553   9.2341673  28.6324083  45.7918553  10.4901673  28.2424083
  45.8238553   9.7101673  28.1724083  32.5618553  13.3221673  35.1424083
  33.3178553  13.6711673  35.4004083  32.7388553  12.4691673  35.0854083
  32.6998553  13.2471673  35.1724083  48.9388553   3.1071673  31.0004083
  49.7108553   2.8821673  31.3374083  48.4638553   3.3241673  31.7004083
  48.9828553   3.1061673  31.1534083  36.4828553   2.3901673  23.9704083
  36.7548553   1.9601673  23.2624083  36.3068553   1.7541673  24.5414083
  36.4968553   2.2331673  23.9504083  49.1708553  10.0851673  18.1884083
  49.2898553   9.7981673  19.0034083  49.9778553  10.1061673  17.8584083
  49.3068553  10.0461673  18.2604083  36.3068553   9.8171673  23.5194083
  37.1578553   9.7371673  23.3464083  35.9498553   9.1351673  23.1074083
  36.3798553   9.7041673  23.4324083  35.0738553  16.5421673  24.7564083
  34.4008553  16.0441673  24.5114083  35.4768553  16.7271673  24.0054083
  35.0338553  16.4961673  24.6094083  34.6238553   3.4921673  27.0524083
  35.4668553   3.7121673  27.0094083  34.2348553   4.0651673  26.5214083
  34.6908553   3.6091673  26.9674083  51.4048553  14.5941673  32.4424083
  50.7228553  14.9041673  31.9954083  51.0358553  14.1361673  33.0874083
  51.2488553  14.5721673  32.4714083  47.0658553   6.6221673  17.7734083
  46.8458553   7.3531673  17.3514083  46.6178553   6.6731673  18.5204083
  46.9668553   6.7371673  17.8214083  38.6748553   9.8241673  21.7544083
  39.3878553  10.3191673  21.8444083  38.8968553   9.2571673  21.1284083
  38.8128553   9.8131673  21.6754083  32.8308553  11.4671673  25.0744083
  32.1638553  11.9551673  25.3504083  33.5108553  12.0121673  25.1034083
  32.8328553  11.6191673  25.1194083  40.4778553   5.1771673  35.1704083
  39.9938553   5.7541673  35.6124083  40.4498553   5.4721673  34.3494083
  40.4018553   5.3061673  35.1144083  51.5758553   5.8611673  29.7824083
  51.7908553   5.0611673  29.5064083  50.7258553   5.9211673  29.5934083
  51.4818553   5.7521673  29.7134083  32.8968553   8.1511673  20.1774083
  32.7118553   7.3121673  20.3294083  33.5558553   8.1151673  19.6074083
  32.9668553   8.0221673  20.1154083  43.1978553  13.5271673  24.0814083
  42.6748553  14.1611673  23.7884083  43.5078553  13.1631673  23.3524083
  43.1658553  13.5671673  23.9304083  33.0688553  12.3151673  19.7524083
  33.6208553  12.8841673  20.1164083  32.8368553  11.8001673  20.4174083
  33.1158553  12.3231673  19.9044083  37.2728553  11.3151673  26.8414083
  37.7398553  11.6041673  27.5194083  37.8448553  10.8371673  26.3874083
  37.4268553  11.2871673  26.8744083  45.7088553   3.3291673  24.5784083
  46.0528553   3.4811673  25.3654083  45.2558553   2.5911673  24.6914083
  45.6928553   3.2421673  24.7114083  32.8988553  10.7641673  17.3804083
  33.6548553  10.3321673  17.4384083  32.9138553  11.2961673  18.0714083
  33.0128553  10.7791673  17.4914083  33.8388553   8.9851673  25.3854083
  34.2698553   8.8561673  24.6384083  33.6338553   9.8331673  25.3594083
  33.8718553   9.0911673  25.2714083  40.1848553   2.5491673  19.0354083
  40.1828553   2.4321673  18.1704083  40.0038553   3.3971673  19.1274083
  40.1578553   2.6571673  18.9214083  49.2388553  14.9761673  30.5324083
  48.5678553  15.4901673  30.7504083  49.3018553  15.0761673  29.6684083
  49.1488553  15.0671673  30.4374083  37.9228553  12.5011673  23.6674083
  38.0488553  13.3441673  23.8544083  38.5908553  12.1021673  24.0634083
  38.0408553  12.5671673  23.7534083  36.0528553   5.9841673  33.5294083
  35.5168553   5.4781673  33.9974083  36.0728553   5.5941673  32.7494083
  35.9758553   5.8511673  33.4834083  36.5378553   5.3811673  18.6694083
  36.4098553   4.9331673  19.4074083  35.9558553   5.0391673  18.1174083
  36.4328553   5.2641673  18.6974083  36.7048553   7.2111673  25.2684083
  35.9238553   7.1521673  24.8854083  36.7768553   6.4591673  25.7054083
  36.5998553   7.0921673  25.2764083  37.1348553   6.9481673  28.7364083
  37.1598553   6.2731673  28.1854083  36.4888553   7.4441673  28.4244083
  37.0438553   6.9211673  28.6094083  47.0298553   4.6611673  27.1324083
  46.3678553   4.9891673  27.5954083  47.2168553   5.2951673  26.5634083
  46.9598553   4.8031673  27.1164083  41.2348553  15.7251673  28.1284083
  40.9578553  15.0841673  27.6054083  41.0268553  16.4511673  27.6904083
  41.1638553  15.7381673  27.9864083  45.2228553   2.6301673  20.6434083
  45.7128553   3.3471673  20.5664083  44.4328553   2.8911673  20.3804083
  45.1788553   2.7741673  20.5934083  34.9338553   8.3031673  34.2954083
  34.8968553   8.8041673  33.5814083  35.2648553   7.5511673  34.0004083
  34.9768553   8.2651673  34.1464083  46.5368553  10.5081673  32.5534083
  47.0208553  11.2261673  32.6514083  46.9308553  10.0811673  31.9024083
  46.6668553  10.5511673  32.4714083  40.8328553  13.3531673  33.7304083
  41.1868553  13.1751673  34.5074083  40.3968553  12.6241673  33.5314083
  40.8208553  13.2191673  33.8164083  41.8048553   4.1001673  26.3684083
  42.2848553   4.7991673  26.5764083  42.1778553   3.4531673  26.8194083
  41.9308553   4.1081673  26.4654083  43.9938553   7.2691673  18.6424083
  43.9858553   7.9911673  18.1524083  43.3548553   7.4041673  19.2194083
  43.8988553   7.3961673  18.6554083  48.9658553  11.1391673  22.6234083
  49.3218553  10.7891673  23.3384083  48.9578553  10.4781673  22.0534083
  49.0178553  10.9891673  22.6444083  45.0108553  14.2051673  26.4674083
  44.4078553  13.9091673  25.9104083  45.5558553  14.6571673  25.9584083
  45.0018553  14.2281673  26.3094083  45.0238553  11.0561673  25.8674083
  44.2268553  11.2801673  26.1414083  45.2818553  10.4621673  26.4524083
  44.9438553  11.0011673  25.9944083  38.9158553  15.8681673  20.3154083
  38.7688553  15.0921673  20.6864083  39.6048553  15.7211673  19.8004083
  38.9958553  15.7311673  20.2944083  41.2078553  15.3841673  18.7174083
  41.8298553  15.5471673  19.3074083  41.2438553  16.0751673  18.1854083
  41.3048553  15.5101673  18.7264083  48.2838553   9.0541673  30.7134083
  48.3388553   9.1791673  29.8514083  49.0368553   9.3741673  31.0154083
  48.4028553   9.1191673  30.6304083  44.4748553  14.4031673  34.9904083
  44.6388553  14.6861673  35.7994083  44.7378553  15.0641673  34.4854083
  44.5378553  14.5431673  35.0354083  35.7088553   7.9181673  19.5464083
  36.0328553   7.1391673  19.3244083  36.3548553   8.2861673  20.0014083
  35.8518553   7.8571673  19.5804083  44.0148553   8.8601673  30.3134083
  43.8598553   9.4701673  30.9174083  44.5488553   8.3021673  30.7194083
  44.0708553   8.8681673  30.4624083  42.3988553   7.2601673  20.9714083
  42.4578553   7.9101673  21.5504083  42.2098553   6.5641673  21.4624083
  42.3798553   7.2531673  21.1294083  47.6248553  11.5891673  26.8404083
  47.1458553  11.8871673  26.1744083  47.2688553  10.8131673  27.0184083
  47.5018553  11.5181673  26.7684083  36.8948553   1.7771673  17.4834083
  36.3838553   1.8301673  16.7774083  37.6788553   2.0171673  17.1874083
  36.9348553   1.8201673  17.3354083  41.6218553   9.3071673  25.4024083
  40.7748553   9.1131673  25.4834083  41.9458553   9.1421673  26.1954083
  41.5438553   9.2541673  25.5314083  38.3738553  16.0371673  16.2884083
  38.8128553  15.3401673  16.5764083  38.5808553  16.6611673  16.8614083
  38.4698553  16.0261673  16.4154083  35.4698553   9.0001673  27.7184083
  36.1918553   9.4881673  27.6814083  35.1998553   8.9701673  26.8894083
  35.5368553   9.0681673  27.5904083  38.6998553   4.1711673  24.4534083
  39.5458553   3.9811673  24.5514083  38.3298553   3.3941673  24.3154083
  38.7698553   4.0281673  24.4474083  51.3168553  15.7551673  18.7804083
  52.0108553  15.2881673  18.5324083  50.7778553  15.1571673  19.1174083
  51.3398553  15.5971673  18.7934083  33.5208553   5.5091673  21.1084083
  34.0098553   5.2171673  21.7694083  33.6498553   4.9161673  20.4814083
  33.6118553   5.3781673  21.1134083  48.5558553   8.5311673  27.9594083
  48.5488553   7.7551673  28.3574083  47.7148553   8.7651673  27.9524083
  48.4308553   8.4511673  28.0174083  38.0458553   6.9431673  16.5944083
  37.4358553   6.5381673  17.0684083  37.6598553   7.0611673  15.8214083
  37.8988553   6.9001673  16.5504083  34.8648553  10.0521673  31.9964083
  34.4438553   9.5341673  31.4354083  34.5128553  10.8381673  31.8534083
  34.7508553  10.0921673  31.8924083  49.8118553   8.6021673  25.3964083
  49.5258553   9.0031673  26.1164083  50.6718553   8.5401673  25.5234083
  49.8968553   8.6521673  25.5214083  39.5008553   5.4041673  19.3044083
  39.7728553   6.2301673  19.3714083  38.6378553   5.4791673  19.2084083
  39.4138553   5.5371673  19.2994083  47.4738553   2.5261673  33.9364083
  46.9488553   2.9851673  34.4604083  47.1128553   1.7311673  33.9304083
  47.3428553   2.4761673  34.0124083  50.9428553  14.2351673  25.9254083
  51.2328553  14.4921673  25.1444083  51.6378553  14.3311673  26.4444083
  51.0888553  14.2871673  25.8864083  45.9658553   6.0951673  34.0124083
  46.0388553   6.1991673  34.8754083  45.3318553   6.6531673  33.7914083
  45.8828553   6.1931673  34.1074083  48.2338553   6.4141673  32.3774083
  48.5528553   7.2001673  32.5804083  47.8638553   6.1441673  33.1204083
  48.2268553   6.4901673  32.5174083  47.5478553  12.8381673  17.9074083
  47.8818553  12.0321673  17.9424083  46.7928553  12.7661673  18.3374083
  47.4858553  12.7081673  17.9764083  48.0298553   4.6721673  23.5664083
  47.2848553   4.3491673  23.8844083  48.0318553   5.4981673  23.8464083
  47.9198553   4.7461673  23.6544083  50.9318553   6.9561673  35.1124083
  50.8798553   6.6151673  34.3114083  51.6688553   7.4231673  35.0904083
  51.0328553   6.9751673  34.9904083  50.4698553  10.6321673  31.3184083
  51.0978553  10.0831673  31.0624083  50.4088553  11.1971673  30.6564083
  50.5538553  10.6351673  31.1824083  44.9218553  10.7131673  17.3104083
  45.6058553  10.1991673  17.1414083  44.5048553  10.7591673  16.5454083
  44.9608553  10.6441673  17.1724083  39.6038553  11.8631673  28.6144083
  39.3058553  12.4551673  29.1814083  39.6588553  12.3051673  27.8654083
  39.5678553  12.0161673  28.5874083  37.5828553  10.8131673  32.0124083
  36.7768553  10.5231673  32.1794083  37.4938553  11.6811673  32.0184083
  37.4508553  10.8981673  32.0374083  42.1198553   8.2861673  28.1054083
  42.5958553   8.6601673  28.7334083  41.2968553   8.4201673  28.3644083
  42.0688553   8.3611673  28.2364083  38.8298553   3.8891673  30.8464083
  38.9908553   3.1451673  31.2734083  38.7848553   3.6401673  30.0114083
  38.8468553   3.7421673  30.7864083  41.3838553  15.6791673  23.3334083
  41.9298553  16.3581673  23.3874083  41.0338553  15.7611673  22.5384083
  41.4128553  15.7921673  23.2234083  39.5668553  13.9071673  26.7224083
  38.9428553  14.4891673  26.5404083  39.8148553  13.6211673  25.9364083
  39.5108553  13.9511673  26.5794083  43.8758553  10.5411673  33.7114083
  44.6328553  10.8271673  33.3854083  43.3288553  10.5931673  33.0334083
  43.9068553  10.5911673  33.5624083  47.7848553  13.0911673  32.2154083
  48.1308553  13.3611673  32.9694083  48.0788553  13.6731673  31.6354083
  47.8798553  13.2171673  32.2414083  49.6478553   5.2371673  17.5544083
  50.0258553   5.9141673  17.1544083  48.8058553   5.4611673  17.5854083
  49.5788553   5.3701673  17.4994083  41.1608553   8.6831673  16.6374083
  40.3558553   8.5061673  16.3524083  41.1278553   9.5341673  16.8294083
  41.0368553   8.7821673  16.6244083  37.0908553   4.7501673  26.7874083
  37.5308553   4.6471673  26.0414083  37.6358553   4.4371673  27.3924083
  37.2358553   4.6891673  26.7664083  45.1068553   3.8521673  32.3794083
  44.4588553   4.3221673  32.7274083  45.6718553   3.7631673  33.0384083
  45.0948553   3.9081673  32.5284083  44.7948553   5.3891673  28.6774083
  45.0968553   5.8091673  29.3804083  44.8308553   4.5491673  28.9094083
  44.8448553   5.3271673  28.8154083  42.2198553  15.5561673  32.6024083
  42.6978553  14.9561673  32.1864083  41.8688553  15.1131673  33.2674083
  42.2388553  15.4021673  32.6394083  47.3428553   4.8361673  20.9294083
  47.5498553   4.6351673  21.7534083  48.0988553   5.1041673  20.5874083
  47.4848553   4.8461673  21.0004083  48.8078553   8.8631673  20.7834083
  49.2838553   8.1341673  20.7354083  47.9868553   8.5771673  20.7074083
  48.7568553   8.7131673  20.7644083  42.2788553  10.7751673  31.6224083
  41.4838553  10.7111673  31.9734083  42.3498553  11.6221673  31.4274083
  42.1718553  10.8901673  31.6454083  38.1088553  16.9821673  26.9394083
  38.1198553  17.0411673  27.8094083  37.6838553  16.2351673  26.7894083
  38.0478553  16.8801673  27.0454083  36.2668553   2.8771673  20.0944083
  36.3928553   2.5481673  19.2964083  35.4548553   2.6281673  20.2934083
  36.1658553   2.7921673  20.0064083  45.0238553  10.0301673  23.1384083
  45.0998553  10.3711673  23.9374083  45.1928553   9.1831673  23.2594083
  45.0598553   9.9551673  23.2744083  42.5458553   9.3041673  22.7034083
  42.2478553   8.9891673  23.4604083  43.2408553   9.7771673  22.9384083
  42.6048553   9.3271673  22.8504083  42.7678553  13.4221673  30.7304083
  43.4548553  13.3081673  31.2554083  42.9018553  14.2131673  30.3864083
  42.8888553  13.5221673  30.7574083  50.9438553   6.0311673  32.5414083
  50.0888553   5.9091673  32.6674083  51.0968553   5.6361673  31.7784083
  50.8398553   5.9541673  32.4474083  45.4568553   6.6961673  31.1174083
  45.2018553   5.9771673  31.5394083  46.2778553   6.8121673  31.3874083
  45.5408553   6.6071673  31.2194083  34.8728553  16.4801673  32.3814083
  34.2188553  15.9111673  32.4794083  34.4978553  17.2531673  32.5324083
  34.7208553  16.5101673  32.4184083  43.3908553   7.8861673  34.3044083
  43.7138553   8.5721673  33.8724083  42.6868553   8.2091673  34.7064083
  43.3338553   8.0351673  34.2994083  46.4748553  16.2601673  25.2334083
  46.0238553  16.9031673  25.6124083  47.1828553  16.1811673  25.7384083
  46.5128553  16.3431673  25.3644083  43.1758553  11.3501673  28.1634083
  42.4818553  11.7521673  28.5064083  43.8528553  11.7831673  28.5024083
  43.1728553  11.4731673  28.2644083  48.5528553  13.9431673  34.7434083
  49.3288553  13.5531673  34.8264083  48.0838553  13.6071673  35.3984083
  48.5978553  13.8361673  34.8524083  36.2438553   4.8881673  30.5104083
  36.6188553   5.5071673  30.0234083  36.9178553   4.4141673  30.7954083
  36.3988553   4.9101673  30.4804083  34.0188553   3.3361673  29.7854083
  34.0958553   3.1671673  28.9324083  34.7648553   3.7421673  29.9824083
  34.1398553   3.3711673  29.6884083  49.5778553   5.9761673  20.2254083
  49.6808553   5.9181673  19.3614083  50.3188553   5.6441673  20.5434083
  49.7028553   5.9191673  20.1444083  43.4978553  12.9411673  21.3324083
  43.2928553  13.7741673  21.1734083  42.7228553  12.5591673  21.4544083
  43.3528553  13.0081673  21.3274083  48.6798553   6.1221673  29.5814083
  48.6778553   5.2591673  29.7054083  48.7468553   6.4461673  30.3884083
  48.6898553   6.0421673  29.7184083  33.4158553   8.5621673  30.0094083
  33.7358553   8.7811673  29.2284083  33.3158553   7.6971673  29.9544083
  33.4478553   8.4671673  29.8864083  34.8718553   4.4981673  16.6274083
  34.1998553   4.5121673  17.1834083  34.9668553   3.6501673  16.4434083
  34.7868553   4.3751673  16.6824083  38.8598553  13.2031673  17.7414083
  39.3008553  13.2831673  18.4894083  38.0548553  12.9871673  17.9994083
  38.8058553  13.1831673  17.8904083  38.1788553   7.8541673  31.3944083
  37.7828553   8.6281673  31.4694083  37.7728553   7.4811673  30.7184083
  38.0608553   7.9131673  31.3054083  47.4548553   6.9081673  25.5084083
  48.1208553   7.4491673  25.6684083  47.1098553   7.2191673  24.7694083
  47.5018553   7.0341673  25.4234083  47.7678553  14.9741673  21.3154083
  47.5938553  14.3201673  21.8654083  48.4808553  14.7031673  20.8924083
  47.8478553  14.8371673  21.3344083  36.1888553  12.2731673  18.3424083
  35.9448553  11.9661673  19.1224083  36.1558553  11.5701673  17.8264083
  36.1478553  12.1241673  18.3814083  39.0078553  10.5181673  17.0854083
  38.1898553  10.2501673  17.2254083  38.9798553  11.3701673  17.2704083
  38.8828553  10.6051673  17.1334083  45.4428553  12.4271673  29.0064083
  45.6488553  12.7281673  29.7984083  45.3818553  13.1491673  28.5214083
  45.4638553  12.5781673  29.0514083  44.9768553  16.6411673  33.2524083
  44.2238553  16.6231673  32.8114083  45.1448553  17.4931673  33.3364083
  44.8908553  16.7641673  33.1994083  40.2138553   5.9081673  32.4224083
  39.8918553   5.3321673  31.8524083  39.8548553   6.6631673  32.1764083
  40.1138553   5.9341673  32.3024083  50.2548553  11.0661673  28.4644083
  50.2228553  10.2041673  28.3294083  49.5618553  11.3681673  28.0304083
  50.1478553  10.9831673  28.3804083  38.6488553  16.2641673  32.6704083
  38.6898553  16.3901673  33.5334083  39.2998553  15.7041673  32.5144083
  38.7508553  16.2001673  32.7754083  48.3598553  14.3261673  27.2614083
  48.8868553  14.2431673  26.5704083  47.9688553  13.5481673  27.3154083
  48.3798553  14.1991673  27.1674083  36.2418553  14.6471673  34.0304083
  36.8368553  15.0781673  34.5024083  35.8778553  15.2711673  33.5414083
  36.2758553  14.8031673  34.0274083  44.2328553   5.5781673  23.9624083
  44.7838553   4.9711673  24.2624083  43.8078553   5.8411673  24.6774083
  44.2518553   5.5271673  24.1114083  34.4808553   4.2281673  23.4484083
  34.1128553   4.5301673  24.1794083  35.0148553   3.5991673  23.7324083
  34.5048553   4.1801673  23.5984083  34.1688553  12.6361673  30.9594083
  33.5948553  13.0521673  31.4684083  34.9018553  13.1011673  31.0544083
  34.1928553  12.7661673  31.0484083  46.2028553   7.4091673  20.5244083
  46.2708553   6.5591673  20.7054083  45.3798553   7.4951673  20.2464083
  46.0908553   7.2961673  20.5104083  35.9548553  15.9031673  19.7344083
  35.8098553  16.0591673  18.8884083  36.8208553  15.9821673  19.8124083
  36.0618553  15.9381673  19.6214083  40.1218553   8.3001673  19.4624083
  40.2218553   8.4391673  18.6074083  40.9398553   8.2401673  19.7584083
  40.2568553   8.3111673  19.3794083  49.2818553  16.3641673  16.9424083
  49.9188553  16.2301673  17.5234083  48.9408553  15.5701673  16.8254083
  49.3258553  16.2271673  17.0104083  49.4768553   8.7821673  33.6754083
  50.1108553   8.6121673  34.2494083  49.8938553   9.1851673  33.0234083
  49.6318553   8.8171673  33.6644083  45.3568553  12.6291673  19.2644083
  45.1058553  12.5011673  20.0904083  45.0398553  11.9341673  18.8434083
  45.2728553  12.5081673  19.3244083  50.1018553   3.3461673  34.4134083
  49.9058553   3.9901673  34.9684083  49.3798553   2.8561673  34.4054083
  49.9668553   3.3691673  34.4944083  50.0008553   4.2871673  27.3844083
  49.1678553   4.5371673  27.3124083  49.9448553   3.4471673  27.6134083
  49.8698553   4.2001673  27.4074083  46.8878553   8.8931673  35.0304083
  47.7588553   8.8571673  34.9944083  46.6688553   9.3131673  34.2984083
  46.9848553   8.9491673  34.9174083  36.6418553  14.7181673  26.2114083
  36.5628553  13.9081673  25.8954083  36.1978553  15.2051673  25.6394083
  36.5648553  14.6701673  26.0804083  42.2428553  10.8371673  18.6944083
  42.9598553  10.4901673  18.3384083  42.2088553  11.6371673  18.3464083
  42.3438553  10.9041673  18.5904083  34.2138553  16.9621673  29.7924083
  34.7068553  16.9061673  30.5104083  34.4018553  16.2291673  29.3574083
  34.3148553  16.8451673  29.8344083  43.4608553   6.3941673   7.6041673
  42.9368553   6.9901673   7.9671673  43.8578553   6.0261673   8.2881673
  43.4418553   6.4281673   7.7591673  33.3298553  10.5341673   3.0601673
  32.8888553  10.6521673   3.8031673  33.0468553   9.7591673   2.7751673
  33.2228553  10.4371673   3.1281673  46.1318553   7.4611673   4.2801673
  46.2118553   7.4651673   3.4111673  45.5478553   6.8291673   4.4291673
  46.0568553   7.3681673   4.1741673  35.8388553  11.2301673   2.1391673
  36.4468553  11.0601673   2.7421673  35.0878553  11.0901673   2.5601673
  35.8178553  11.1841673   2.2901673  33.2698553  13.2691673   9.3151673
  33.3988553  12.9891673  10.1311673  32.6598553  12.7281673   9.0061673
  33.1988553  13.1481673   9.3901673  39.8438553  10.7941673  14.3821673
  39.6078553  10.7911673  15.2221673  39.0958553  10.6461673  13.9581673
  39.6978553  10.7711673  14.4431673  34.7158553   7.7901673   3.5171673
  34.2538553   7.3981673   2.8901673  35.4158553   7.2771673   3.6091673
  34.7508553   7.6571673   3.4381673  39.2238553   3.4001673   8.8641673
  39.9018553   3.4181673   8.3151673  39.1788553   2.5641673   9.1091673
  39.3168553   3.2791673   8.8191673  39.8258553  13.9861673  11.6451673
  39.9638553  14.7461673  11.2381673  40.6168553  13.6211673  11.6721673
  39.9628553  14.0451673  11.5891673  36.7168553   5.8901673   3.5401673
  37.5338553   5.7031673   3.7831673  36.2398553   5.2761673   3.9361673
  36.7668553   5.7721673   3.6351673  40.9208553  11.8711673   6.1501673
  41.2688553  11.0721673   6.1801673  41.5858553  12.3751673   5.8951673
  41.0708553  11.8271673   6.1171673  40.9778553  11.3201673   2.3611673
  41.3088553  10.6761673   2.8471673  41.2178553  11.1091673   1.5501673
  41.0618553  11.1941673   2.3131673  42.9458553   5.4511673  13.7001673
  42.0978553   5.3521673  13.5221673  42.9748553   6.1961673  14.1541673
  42.8248553   5.5471673  13.7411673  33.1718553   5.5511673   6.5301673
  32.9158553   6.3821673   6.4551673  32.5078553   5.1681673   6.9471673
  33.0358553   5.6171673   6.5811673  33.0818553  15.2611673   4.4301673
  32.4898553  15.8191673   4.1171673  33.5078553  14.9921673   3.7181673
  33.0578553  15.3031673   4.2791673  38.9218553  13.1051673   1.9101673
  38.3428553  12.8301673   2.5021673  39.5458553  12.4961673   1.9351673
  38.9288553  12.9751673   2.0011673  39.5068553   2.5011673  16.3191673
  39.6238553   2.0471673  15.5831673  39.7948553   3.2991673  16.1161673
  39.5668553   2.5521673  16.1801673  34.6268553  13.9311673   2.3611673
  35.2828553  13.3561673   2.3761673  35.0158553  14.6801673   2.1401673
  34.7818553  13.9561673   2.3311673  50.3598553   3.0251673   3.6231673
  50.0138553   3.7031673   4.0491673  49.7238553   2.4271673   3.6391673
  50.2148553   3.0371673   3.6881673  45.6718553  15.7951673   9.7271673
  46.4158553  16.2511673   9.7171673  45.5508553  15.5811673   8.8901673
  45.7638553  15.8311673   9.6021673  35.4448553  12.4181673   5.8611673
  35.8678553  12.0621673   5.1871673  35.7688553  11.9961673   6.5531673
  35.5548553  12.3031673   5.8641673  38.6758553  15.2701673   5.1571673
  39.5198553  15.3741673   4.9621673  38.3788553  16.0881673   5.2251673
  38.7568553  15.4061673   5.1381673  42.4828553   4.6671673   3.2441673
  42.7698553   4.4351673   2.4541673  43.2148553   4.7461673   3.7131673
  42.6328553   4.6441673   3.1971673  37.6738553  16.4891673  10.8971673
  37.9658553  16.4221673  11.7171673  37.0478553  15.8841673  10.8521673
  37.6248553  16.3901673  11.0121673  32.5878553   2.6461673  12.8891673
  32.5838553   3.2331673  13.5351673  33.1818553   2.9581673  12.3321673
  32.6748553   2.7791673  12.9021673  44.9258553  12.9801673  13.4311673
  44.8918553  13.3621673  14.2151673  45.7798553  12.9381673  13.2601673
  45.0468553  13.0301673  13.5221673  35.6668553  14.6511673  10.0191673
  34.9688553  14.1431673  10.1451673  35.9268553  14.4461673   9.2111673
  35.6018553  14.5461673   9.9181673  43.3778553  16.1441673  10.9291673
  44.1458553  16.0641673  10.5231673  42.7948553  16.0231673  10.2911673
  43.4048553  16.1141673  10.7751673  49.6548553  16.7471673   3.8301673
  49.1998553  17.4641673   4.0311673  49.0408553  16.1761673   3.5881673
  49.4968553  16.7691673   3.8241673  41.4268553   2.7571673   4.9621673
  41.5008553   3.3251673   4.3041673  41.5478553   3.2491673   5.6721673
  41.4548553   2.9141673   4.9701673  46.6518553  12.5921673   3.3741673
  47.3528553  12.1101673   3.5631673  45.9918553  12.0231673   3.4191673
  46.6578553  12.4371673   3.4081673  37.0278553  13.5021673  12.5861673
  37.8688553  13.5651673  12.3641673  36.9908553  13.8991673  13.3621673
  37.1468553  13.5701673  12.6681673  38.9908553   9.0131673   7.3351673
  39.1628553   8.8031673   8.1641673  38.3358553   8.4791673   7.1191673
  38.9198553   8.9031673   7.4261673  45.2188553   2.9271673  10.8501673
  45.1238553   3.2461673  11.6561673  44.6258553   2.2881673  10.8121673
  45.1168553   2.8791673  10.9641673  39.7408553   8.9511673   9.9251673
  39.7938553   9.7981673  10.1271673  39.4558553   8.5811673  10.6621673
  39.7068553   9.0211673  10.0631673  45.9178553   9.6461673   9.0551673
  45.4038553   9.2341673   9.6261673  45.7918553  10.4901673   9.2361673
  45.8238553   9.7101673   9.1661673  32.5618553  13.3221673  16.1361673
  33.3178553  13.6711673  16.3941673  32.7388553  12.4691673  16.0791673
  32.6998553  13.2471673  16.1661673  48.9388553   3.1071673  11.9941673
  49.7108553   2.8821673  12.3311673  48.4638553   3.3241673  12.6941673
  48.9828553   3.1061673  12.1471673  36.4828553   2.3901673   4.9641673
  36.7548553   1.9601673   4.2561673  36.3068553   1.7541673   5.5351673
  36.4968553   2.2331673   4.9441673  36.3068553   9.8171673   4.5131673
  37.1578553   9.7371673   4.3401673  35.9498553   9.1351673   4.1011673
  36.3798553   9.7041673   4.4261673  35.0738553  16.5421673   5.7501673
  34.4008553  16.0441673   5.5051673  35.4768553  16.7271673   4.9991673
  35.0338553  16.4961673   5.6031673  34.6238553   3.4921673   8.0461673
  35.4668553   3.7121673   8.0031673  34.2348553   4.0651673   7.5151673
  34.6908553   3.6091673   7.9611673  51.4048553  14.5941673  13.4361673
  50.7228553  14.9041673  12.9891673  51.0358553  14.1361673  14.0811673
  51.2488553  14.5721673  13.4651673  38.6748553   9.8241673   2.7481673
  39.3878553  10.3191673   2.8381673  38.8968553   9.2571673   2.1221673
  38.8128553   9.8131673   2.6691673  32.8308553  11.4671673   6.0681673
  32.1638553  11.9551673   6.3441673  33.5108553  12.0121673   6.0971673
  32.8328553  11.6191673   6.1131673  40.4778553   5.1771673  16.1641673
  39.9938553   5.7541673  16.6061673  40.4498553   5.4721673  15.3431673
  40.4018553   5.3061673  16.1081673  51.5758553   5.8611673  10.7761673
  51.7908553   5.0611673  10.5001673  50.7258553   5.9211673  10.5871673
  51.4818553   5.7521673  10.7071673  43.1978553  13.5271673   5.0751673
  42.6748553  14.1611673   4.7821673  43.5078553  13.1631673   4.3461673
  43.1658553  13.5671673   4.9241673  37.2728553  11.3151673   7.8351673
  37.7398553  11.6041673   8.5131673  37.8448553  10.8371673   7.3811673
  37.4268553  11.2871673   7.8681673  45.7088553   3.3291673   5.5721673
  46.0528553   3.4811673   6.3591673  45.2558553   2.5911673   5.6851673
  45.6928553   3.2421673   5.7051673  33.8388553   8.9851673   6.3791673
  34.2698553   8.8561673   5.6321673  33.6338553   9.8331673   6.3531673
  33.8718553   9.0911673   6.2651673  49.2388553  14.9761673  11.5261673
  48.5678553  15.4901673  11.7441673  49.3018553  15.0761673  10.6621673
  49.1488553  15.0671673  11.4311673  37.9228553  12.5011673   4.6611673
  38.0488553  13.3441673   4.8481673  38.5908553  12.1021673   5.0571673
  38.0408553  12.5671673   4.7471673  36.0528553   5.9841673  14.5231673
  35.5168553   5.4781673  14.9911673  36.0728553   5.5941673  13.7431673
  35.9758553   5.8511673  14.4771673  36.7048553   7.2111673   6.2621673
  35.9238553   7.1521673   5.8791673  36.7768553   6.4591673   6.6991673
  36.5998553   7.0921673   6.2701673  37.1348553   6.9481673   9.7301673
  37.1598553   6.2731673   9.1791673  36.4888553   7.4441673   9.4181673
  37.0438553   6.9211673   9.6031673  47.0298553   4.6611673   8.1261673
  46.3678553   4.9891673   8.5891673  47.2168553   5.2951673   7.5571673
  46.9598553   4.8031673   8.1101673  41.2348553  15.7251673   9.1221673
  40.9578553  15.0841673   8.5991673  41.0268553  16.4511673   8.6841673
  41.1638553  15.7381673   8.9801673  34.9338553   8.3031673  15.2891673
  34.8968553   8.8041673  14.5751673  35.2648553   7.5511673  14.9941673
  34.9768553   8.2651673  15.1401673  46.5368553  10.5081673  13.5471673
  47.0208553  11.2261673  13.6451673  46.9308553  10.0811673  12.8961673
  46.6668553  10.5511673  13.4651673  40.8328553  13.3531673  14.7241673
  41.1868553  13.1751673  15.5011673  40.3968553  12.6241673  14.5251673
  40.8208553  13.2191673  14.8101673  41.8048553   4.1001673   7.3621673
  42.2848553   4.7991673   7.5701673  42.1778553   3.4531673   7.8131673
  41.9308553   4.1081673   7.4591673  48.9658553  11.1391673   3.6171673
  49.3218553  10.7891673   4.3321673  48.9578553  10.4781673   3.0471673
  49.0178553  10.9891673   3.6381673  45.0108553  14.2051673   7.4611673
  44.4078553  13.9091673   6.9041673  45.5558553  14.6571673   6.9521673
  45.0018553  14.2281673   7.3031673  45.0238553  11.0561673   6.8611673
  44.2268553  11.2801673   7.1351673  45.2818553  10.4621673   7.4461673
  44.9438553  11.0011673   6.9881673  48.2838553   9.0541673  11.7071673
  48.3388553   9.1791673  10.8451673  49.0368553   9.3741673  12.0091673
  48.4028553   9.1191673  11.6241673  44.4748553  14.4031673  15.9841673
  44.6388553  14.6861673  16.7931673  44.7378553  15.0641673  15.4791673
  44.5378553  14.5431673  16.0291673  44.0148553   8.8601673  11.3071673
  43.8598553   9.4701673  11.9111673  44.5488553   8.3021673  11.7131673
  44.0708553   8.8681673  11.4561673  42.3988553   7.2601673   1.9651673
  42.4578553   7.9101673   2.5441673  42.2098553   6.5641673   2.4561673
  42.3798553   7.2531673   2.1231673  47.6248553  11.5891673   7.8341673
  47.1458553  11.8871673   7.1681673  47.2688553  10.8131673   8.0121673
  47.5018553  11.5181673   7.7621673  41.6218553   9.3071673   6.3961673
  40.7748553   9.1131673   6.4771673  41.9458553   9.1421673   7.1891673
  41.5438553   9.2541673   6.5251673  35.4698553   9.0001673   8.7121673
  36.1918553   9.4881673   8.6751673  35.1998553   8.9701673   7.8831673
  35.5368553   9.0681673   8.5841673  38.6998553   4.1711673   5.4471673
  39.5458553   3.9811673   5.5451673  38.3298553   3.3941673   5.3091673
  38.7698553   4.0281673   5.4411673  48.5558553   8.5311673   8.9531673
  48.5488553   7.7551673   9.3511673  47.7148553   8.7651673   8.9461673
  48.4308553   8.4511673   9.0111673  34.8648553  10.0521673  12.9901673
  34.4438553   9.5341673  12.4291673  34.5128553  10.8381673  12.8471673
  34.7508553  10.0921673  12.8861673  49.8118553   8.6021673   6.3901673
  49.5258553   9.0031673   7.1101673  50.6718553   8.5401673   6.5171673
  49.8968553   8.6521673   6.5151673  47.4738553   2.5261673  14.9301673
  46.9488553   2.9851673  15.4541673  47.1128553   1.7311673  14.9241673
  47.3428553   2.4761673  15.0061673  50.9428553  14.2351673   6.9191673
  51.2328553  14.4921673   6.1381673  51.6378553  14.3311673   7.4381673
  51.0888553  14.2871673   6.8801673  45.9658553   6.0951673  15.0061673
  46.0388553   6.1991673  15.8691673  45.3318553   6.6531673  14.7851673
  45.8828553   6.1931673  15.1011673  48.2338553   6.4141673  13.3711673
  48.5528553   7.2001673  13.5741673  47.8638553   6.1441673  14.1141673
  48.2268553   6.4901673  13.5111673  48.0298553   4.6721673   4.5601673
  47.2848553   4.3491673   4.8781673  48.0318553   5.4981673   4.8401673
  47.9198553   4.7461673   4.6481673  50.9318553   6.9561673  16.1061673
  50.8798553   6.6151673  15.3051673  51.6688553   7.4231673  16.0841673
  51.0328553   6.9751673  15.9841673  50.4698553  10.6321673  12.3121673
  51.0978553  10.0831673  12.0561673  50.4088553  11.1971673  11.6501673
  50.5538553  10.6351673  12.1761673  39.6038553  11.8631673   9.6081673
  39.3058553  12.4551673  10.1751673  39.6588553  12.3051673   8.8591673
  39.5678553  12.0161673   9.5811673  37.5828553  10.8131673  13.0061673
  36.7768553  10.5231673  13.1731673  37.4938553  11.6811673  13.0121673
  37.4508553  10.8981673  13.0311673  42.1198553   8.2861673   9.0991673
  42.5958553   8.6601673   9.7271673  41.2968553   8.4201673   9.3581673
  42.0688553   8.3611673   9.2301673  38.8298553   3.8891673  11.8401673
  38.9908553   3.1451673  12.2671673  38.7848553   3.6401673  11.0051673
  38.8468553   3.7421673  11.7801673  41.3838553  15.6791673   4.3271673
  41.9298553  16.3581673   4.3811673  41.0338553  15.7611673   3.5321673
  41.4128553  15.7921673   4.2171673  39.5668553  13.9071673   7.7161673
  38.9428553  14.4891673   7.5341673  39.8148553  13.6211673   6.9301673
  39.5108553  13.9511673   7.5731673  43.8758553  10.5411673  14.7051673
  44.6328553  10.8271673  14.3791673  43.3288553  10.5931673  14.0271673
  43.9068553  10.5911673  14.5561673  47.7848553  13.0911673  13.2091673
  48.1308553  13.3611673  13.9631673  48.0788553  13.6731673  12.6291673
  47.8798553  13.2171673  13.2351673  37.0908553   4.7501673   7.7811673
  37.5308553   4.6471673   7.0351673  37.6358553   4.4371673   8.3861673
  37.2358553   4.6891673   7.7601673  45.1068553   3.8521673  13.3731673
  44.4588553   4.3221673  13.7211673  45.6718553   3.7631673  14.0321673
  45.0948553   3.9081673  13.5221673  44.7948553   5.3891673   9.6711673
  45.0968553   5.8091673  10.3741673  44.8308553   4.5491673   9.9031673
  44.8448553   5.3271673   9.8091673  42.2198553  15.5561673  13.5961673
  42.6978553  14.9561673  13.1801673  41.8688553  15.1131673  14.2611673
  42.2388553  15.4021673  13.6331673  47.3428553   4.8361673   1.9231673
  47.5498553   4.6351673   2.7471673  48.0988553   5.1041673   1.5811673
  47.4848553   4.8461673   1.9941673  48.8078553   8.8631673   1.7771673
  49.2838553   8.1341673   1.7291673  47.9868553   8.5771673   1.7011673
  48.7568553   8.7131673   1.7581673  42.2788553  10.7751673  12.6161673
  41.4838553  10.7111673  12.9671673  42.3498553  11.6221673  12.4211673
  42.1718553  10.8901673  12.6391673  38.1088553  16.9821673   7.9331673
  38.1198553  17.0411673   8.8031673  37.6838553  16.2351673   7.7831673
  38.0478553  16.8801673   8.0391673  45.0238553  10.0301673   4.1321673
  45.0998553  10.3711673   4.9311673  45.1928553   9.1831673   4.2531673
  45.0598553   9.9551673   4.2681673  42.5458553   9.3041673   3.6971673
  42.2478553   8.9891673   4.4541673  43.2408553   9.7771673   3.9321673
  42.6048553   9.3271673   3.8441673  42.7678553  13.4221673  11.7241673
  43.4548553  13.3081673  12.2491673  42.9018553  14.2131673  11.3801673
  42.8888553  13.5221673  11.7511673  50.9438553   6.0311673  13.5351673
  50.0888553   5.9091673  13.6611673  51.0968553   5.6361673  12.7721673
  50.8398553   5.9541673  13.4411673  45.4568553   6.6961673  12.1111673
  45.2018553   5.9771673  12.5331673  46.2778553   6.8121673  12.3811673
  45.5408553   6.6071673  12.2131673  34.8728553  16.4801673  13.3751673
  34.2188553  15.9111673  13.4731673  34.4978553  17.2531673  13.5261673
  34.7208553  16.5101673  13.4121673  43.3908553   7.8861673  15.2981673
  43.7138553   8.5721673  14.8661673  42.6868553   8.2091673  15.7001673
  43.3338553   8.0351673  15.2931673  46.4748553  16.2601673   6.2271673
  46.0238553  16.9031673   6.6061673  47.1828553  16.1811673   6.7321673
  46.5128553  16.3431673   6.3581673  43.1758553  11.3501673   9.1571673
  42.4818553  11.7521673   9.5001673  43.8528553  11.7831673   9.4961673
  43.1728553  11.4731673   9.2581673  48.5528553  13.9431673  15.7371673
  49.3288553  13.5531673  15.8201673  48.0838553  13.6071673  16.3921673
  48.5978553  13.8361673  15.8461673  36.2438553   4.8881673  11.5041673
  36.6188553   5.5071673  11.0171673  36.9178553   4.4141673  11.7891673
  36.3988553   4.9101673  11.4741673  34.0188553   3.3361673  10.7791673
  34.0958553   3.1671673   9.9261673  34.7648553   3.7421673  10.9761673
  34.1398553   3.3711673  10.6821673  43.4978553  12.9411673   2.3261673
  43.2928553  13.7741673   2.1671673  42.7228553  12.5591673   2.4481673
  43.3528553  13.0081673   2.3211673  48.6798553   6.1221673  10.5751673
  48.6778553   5.2591673  10.6991673  48.7468553   6.4461673  11.3821673
  48.6898553   6.0421673  10.7121673  33.4158553   8.5621673  11.0031673
  33.7358553   8.7811673  10.2221673  33.3158553   7.6971673  10.9481673
  33.4478553   8.4671673  10.8801673  38.1788553   7.8541673  12.3881673
  37.7828553   8.6281673  12.4631673  37.7728553   7.4811673  11.7121673
  38.0608553   7.9131673  12.2991673  47.4548553   6.9081673   6.5021673
  48.1208553   7.4491673   6.6621673  47.1098553   7.2191673   5.7631673
  47.5018553   7.0341673   6.4171673  47.7678553  14.9741673   2.3091673
  47.5938553  14.3201673   2.8591673  48.4808553  14.7031673   1.8861673
  47.8478553  14.8371673   2.3281673  45.4428553  12.4271673  10.0001673
  45.6488553  12.7281673  10.7921673  45.3818553  13.1491673   9.5151673
  45.4638553  12.5781673  10.0451673  44.9768553  16.6411673  14.2461673
  44.2238553  16.6231673  13.8051673  45.1448553  17.4931673  14.3301673
  44.8908553  16.7641673  14.1931673  40.2138553   5.9081673  13.4161673
  39.8918553   5.3321673  12.8461673  39.8548553   6.6631673  13.1701673
  40.1138553   5.9341673  13.2961673  50.2548553  11.0661673   9.4581673
  50.2228553  10.2041673   9.3231673  49.5618553  11.3681673   9.0241673
  50.1478553  10.9831673   9.3741673  38.6488553  16.2641673  13.6641673
  38.6898553  16.3901673  14.5271673  39.2998553  15.7041673  13.5081673
  38.7508553  16.2001673  13.7691673  48.3598553  14.3261673   8.2551673
  48.8868553  14.2431673   7.5641673  47.9688553  13.5481673   8.3091673
  48.3798553  14.1991673   8.1611673  36.2418553  14.6471673  15.0241673
  36.8368553  15.0781673  15.4961673  35.8778553  15.2711673  14.5351673
  36.2758553  14.8031673  15.0211673  44.2328553   5.5781673   4.9561673
  44.7838553   4.9711673   5.2561673  43.8078553   5.8411673   5.6711673
  44.2518553   5.5271673   5.1051673  34.4808553   4.2281673   4.4421673
  34.1128553   4.5301673   5.1731673  35.0148553   3.5991673   4.7261673
  34.5048553   4.1801673   4.5921673  34.1688553  12.6361673  11.9531673
  33.5948553  13.0521673  12.4621673  34.9018553  13.1011673  12.0481673
  34.1928553  12.7661673  12.0421673  49.4768553   8.7821673  14.6691673
  50.1108553   8.6121673  15.2431673  49.8938553   9.1851673  14.0171673
  49.6318553   8.8171673  14.6581673  50.1018553   3.3461673  15.4071673
  49.9058553   3.9901673  15.9621673  49.3798553   2.8561673  15.3991673
  49.9668553   3.3691673  15.4881673  50.0008553   4.2871673   8.3781673
  49.1678553   4.5371673   8.3061673  49.9448553   3.4471673   8.6071673
  49.8698553   4.2001673   8.4011673  46.8878553   8.8931673  16.0241673
  47.7588553   8.8571673  15.9881673  46.6688553   9.3131673  15.2921673
  46.9848553   8.9491673  15.9111673  36.6418553  14.7181673   7.2051673
  36.5628553  13.9081673   6.8891673  36.1978553  15.2051673   6.6331673
  36.5648553  14.6701673   7.0741673  34.2138553  16.9621673  10.7861673
  34.7068553  16.9061673  11.5041673  34.4018553  16.2291673  10.3511673
  34.3148553  16.8451673  10.8281673  24.7870113  54.9124913  78.9581313
  24.5420113  55.4004913  78.2781313  25.6500113  54.8394913  78.8581313
  24.8780113  54.9734913  78.8431313  24.5960113  61.8284913  83.6291313
  24.0720113  62.4244913  83.9921313  24.9930113  61.4604913  84.3131313
  24.5770113  61.8624913  83.7841313  14.4650113  65.9684913  79.0851313
  14.0240113  66.0864913  79.8281313  14.1820113  65.1934913  78.8001313
  14.3580113  65.8714913  79.1531313  30.7400113  69.2694913  76.6001313
  31.4410113  68.7504913  76.5961313  30.1530113  68.8244913  76.1311313
  30.7570113  69.1264913  76.5301313  14.2080113  59.7604913  75.5921313
  13.4300113  59.9224913  75.2321313  14.2470113  58.8894913  75.6141313
  14.0990113  59.6554913  75.5421313  17.3470113  65.0234913  74.2641313
  16.9550113  64.6524913  73.5781313  17.2670113  64.4254913  74.8931313
  17.2770113  64.8804913  74.2551313  27.2670113  62.8954913  80.3051313
  27.3470113  62.8994913  79.4361313  26.6830113  62.2634913  80.4541313
  27.1920113  62.8024913  80.1991313  16.9740113  66.6644913  78.1641313
  17.5820113  66.4944913  78.7671313  16.2230113  66.5244913  78.5851313
  16.9530113  66.6184913  78.3151313  21.2560113  55.9994913  78.1131313
  21.1860113  56.6764913  77.5671313  21.9970113  55.6114913  77.8641313
  21.3550113  56.0424913  77.9951313  14.4050113  68.7034913  85.3401313
  14.5340113  68.4234913  86.1561313  13.7950113  68.1624913  85.0311313
  14.3340113  68.5824913  85.4151313  15.8510113  63.2244913  79.5421313
  15.3890113  62.8324913  78.9151313  16.5510113  62.7114913  79.6341313
  15.8860113  63.0914913  79.4631313  20.3590113  58.8344913  84.8891313
  21.0370113  58.8524913  84.3401313  20.3140113  57.9984913  85.1341313
  20.4520113  58.7134913  84.8441313  17.8520113  61.3244913  79.5651313
  18.6690113  61.1374913  79.8081313  17.3750113  60.7104913  79.9611313
  17.9020113  61.2064913  79.6601313  22.0560113  67.3054913  82.1751313
  22.4040113  66.5064913  82.2051313  22.7210113  67.8094913  81.9201313
  22.2060113  67.2614913  82.1421313  22.1130113  66.7544913  78.3861313
  22.4440113  66.1104913  78.8721313  22.3530113  66.5434913  77.5751313
  22.1970113  66.6284913  78.3381313  18.4490113  56.4184913  78.8311313
  18.1530113  56.9194913  78.1811313  19.3160113  56.4964913  78.7741313
  18.5330113  56.5044913  78.7271313  21.4280113  55.5604913  81.0541313
  21.5010113  56.4204913  81.1831313  21.3900113  55.4854913  80.1861313
  21.4330113  55.6764913  80.9451313  26.1010113  58.4864913  73.3531313
  25.6510113  59.1674913  73.6601313  26.2150113  57.9824913  74.0561313
  26.0520113  58.5124913  73.5021313  14.3070113  60.9854913  82.5551313
  14.0510113  61.8164913  82.4801313  13.6430113  60.6024913  82.9721313
  14.1710113  61.0514913  82.6061313  20.0570113  68.5394913  77.9351313
  19.4780113  68.2644913  78.5271313  20.6810113  67.9304913  77.9601313
  20.0640113  68.4094913  78.0261313  17.3360113  55.8024913  83.0461313
  16.8150113  55.1744913  82.7381313  17.9270113  55.3654913  83.5171313
  17.3470113  55.6444913  83.0701313  31.4950113  58.4594913  79.6481313
  31.1490113  59.1374913  80.0741313  30.8590113  57.8614913  79.6641313
  31.3500113  58.4714913  79.7131313  16.5800113  67.8524913  81.8861313
  17.0030113  67.4964913  81.2121313  16.9040113  67.4304913  82.5781313
  16.6900113  67.7374913  81.8891313  23.6180113  60.1014913  79.2691313
  23.9050113  59.8694913  78.4791313  24.3500113  60.1804913  79.7381313
  23.7680113  60.0784913  79.2221313  24.3400113  60.4404913  74.3901313
  24.6210113  61.2284913  74.6391313  23.5640113  60.6054913  74.0271313
  24.2670113  60.5814913  74.3731313  31.1700113  56.7824913  85.0171313
  31.9270113  56.8544913  84.5891313  31.2330113  56.0094913  85.4161313
  31.2910113  56.6794913  85.0121313  23.1990113  68.6114913  74.2061313
  23.0180113  69.1564913  74.8631313  23.9650113  68.9014913  73.9051313
  23.2850113  68.7354913  74.2591313  26.7060113  56.5074913  75.2601313
  27.2460113  55.8254913  75.3361313  26.7680113  56.9054913  76.0341313
  26.7950113  56.4654913  75.3861313  14.6600113  57.6754913  77.8291313
  14.5460113  56.8114913  77.8601313  14.1850113  57.9694913  78.4991313
  14.5730113  57.5914913  77.9321313  23.9640113  58.8834913  76.5741313
  23.4560113  58.2214913  76.3201313  24.0160113  59.3874913  75.8641313
  23.8970113  58.8604913  76.4321313  23.9640113  55.8244913  76.4651313
  23.5090113  55.4224913  75.8391313  24.7370113  55.9794913  76.0901313
  24.0110113  55.7884913  76.3171313  22.5620113  58.1914913  80.9871313
  22.6360113  58.7594913  80.3291313  22.6830113  58.6834913  81.6971313
  22.5900113  58.3484913  80.9951313  27.7870113  68.0264913  79.3991313
  28.4880113  67.5444913  79.5881313  27.1270113  67.4574913  79.4441313
  27.7930113  67.8714913  79.4331313  17.1700113  54.0144913  79.3351313
  17.7060113  54.7024913  79.3251313  17.1730113  53.7404913  78.5071313
  17.2490113  54.0754913  79.2111313  20.1260113  64.4474913  83.3601313
  20.2980113  64.2374913  84.1891313  19.4710113  63.9134913  83.1441313
  20.0550113  64.3374913  83.4511313  26.3540113  58.3614913  86.8751313
  26.2590113  58.6804913  87.6811313  25.7610113  57.7224913  86.8371313
  26.2520113  58.3134913  86.9891313  20.8760113  64.3854913  85.9501313
  20.9290113  65.2324913  86.1521313  20.5910113  64.0154913  86.6871313
  20.8420113  64.4554913  86.0881313  27.0530113  65.0804913  85.0801313
  26.5390113  64.6684913  85.6511313  26.9270113  65.9244913  85.2611313
  26.9590113  65.1444913  85.1911313  27.6100113  54.3054913  79.7111313
  27.6590113  53.9874913  80.5221313  27.9330113  53.6614913  79.2181313
  27.6650113  54.1634913  79.7581313  17.6180113  57.8244913  80.9891313
  17.8900113  57.3944913  80.2811313  17.4420113  57.1884913  81.5601313
  17.6320113  57.6674913  80.9691313  30.3060113  65.5194913  75.2071313
  30.4250113  65.2324913  76.0221313  31.1130113  65.5404913  74.8771313
  30.4420113  65.4804913  75.2791313  17.4420113  65.2514913  80.5381313
  18.2930113  65.1714913  80.3651313  17.0850113  64.5694913  80.1261313
  17.5150113  65.1384913  80.4511313  15.7590113  58.9264913  84.0711313
  16.6020113  59.1464913  84.0281313  15.3700113  59.4994913  83.5401313
  15.8260113  59.0434913  83.9861313  28.2010113  62.0564913  74.7921313
  27.9810113  62.7874913  74.3701313  27.7530113  62.1074913  75.5391313
  28.1020113  62.1714913  74.8401313  19.8100113  65.2584913  78.7731313
  20.5230113  65.7534913  78.8631313  20.0320113  64.6914913  78.1471313
  19.9480113  65.2474913  78.6941313  32.3880113  56.9174913  74.2451313
  31.7260113  56.3494913  74.2681313  32.1950113  57.4294913  73.5651313
  32.2620113  56.9094913  74.1481313  13.9660113  66.9014913  82.0931313
  13.2990113  67.3894913  82.3691313  14.6460113  67.4464913  82.1221313
  13.9680113  67.0534913  82.1381313  32.7110113  61.2954913  86.8011313
  32.9260113  60.4954913  86.5251313  31.8610113  61.3554913  86.6121313
  32.6170113  61.1864913  86.7321313  14.0320113  63.5854913  77.1961313
  13.8470113  62.7464913  77.3481313  14.6910113  63.5494913  76.6261313
  14.1020113  63.4564913  77.1341313  30.3900113  56.4754913  76.5241313
  31.1360113  56.0684913  76.7231313  30.6530113  57.1904913  76.0991313
  30.5390113  56.5214913  76.4911313  24.3330113  68.9614913  81.1001313
  23.8100113  69.5954913  80.8071313  24.6430113  68.5974913  80.3711313
  24.3010113  69.0014913  80.9491313  14.2040113  67.7494913  76.7711313
  14.7560113  68.3184913  77.1351313  13.9720113  67.2344913  77.4361313
  14.2510113  67.7574913  76.9231313  18.4080113  66.7494913  83.8601313
  18.8750113  67.0384913  84.5381313  18.9800113  66.2714913  83.4061313
  18.5620113  66.7214913  83.8931313  26.8440113  58.7634913  81.5971313
  27.1880113  58.9154913  82.3841313  26.3910113  58.0254913  81.7101313
  26.8280113  58.6764913  81.7301313  14.0340113  66.1984913  74.3991313
  14.7900113  65.7664913  74.4571313  14.0490113  66.7304913  75.0901313
  14.1480113  66.2134913  74.5101313  14.9740113  64.4194913  82.4041313
  15.4050113  64.2904913  81.6571313  14.7690113  65.2674913  82.3781313
  15.0070113  64.5254913  82.2901313  21.3200113  57.9834913  76.0541313
  21.3180113  57.8664913  75.1891313  21.1390113  58.8314913  76.1461313
  21.2930113  58.0914913  75.9401313  19.0580113  67.9354913  80.6861313
  19.1840113  68.7784913  80.8731313  19.7260113  67.5364913  81.0821313
  19.1760113  68.0014913  80.7721313  17.6730113  60.8154913  75.6881313
  17.5450113  60.3674913  76.4261313  17.0910113  60.4734913  75.1361313
  17.5680113  60.6984913  75.7161313  17.8400113  62.6454913  82.2871313
  17.0590113  62.5864913  81.9041313  17.9120113  61.8934913  82.7241313
  17.7350113  62.5264913  82.2951313  18.2700113  62.3824913  85.7551313
  18.2950113  61.7074913  85.2041313  17.6240113  62.8784913  85.4431313
  18.1790113  62.3554913  85.6281313  28.1650113  60.0954913  84.1511313
  27.5030113  60.4234913  84.6141313  28.3520113  60.7294913  83.5821313
  28.0950113  60.2374913  84.1351313  26.3580113  58.0644913  77.6621313
  26.8480113  58.7814913  77.5851313  25.5680113  58.3254913  77.3991313
  26.3140113  58.2084913  77.6121313  22.9400113  59.5344913  83.3871313
  23.4200113  60.2334913  83.5951313  23.3130113  58.8874913  83.8381313
  23.0660113  59.5424913  83.4841313  25.1290113  62.7034913  75.6611313
  25.1210113  63.4254913  75.1711313  24.4900113  62.8384913  76.2381313
  25.0340113  62.8304913  75.6741313  30.1010113  66.5734913  79.6421313
  30.4570113  66.2234913  80.3571313  30.0930113  65.9124913  79.0721313
  30.1530113  66.4234913  79.6631313  26.1590113  66.4904913  82.8861313
  25.3620113  66.7144913  83.1601313  26.4170113  65.8964913  83.4711313
  26.0790113  66.4354913  83.0131313  19.7220113  55.0454913  75.3221313
  19.8190113  54.9384913  76.1831313  19.0140113  55.5514913  75.2571313
  19.6320113  55.1044913  75.4401313  29.4190113  64.4884913  87.7321313
  29.4740113  64.6134913  86.8701313  30.1720113  64.8084913  88.0341313
  29.5380113  64.5534913  87.6491313  16.8440113  63.3524913  76.5651313
  17.1680113  62.5734913  76.3431313  17.4900113  63.7204913  77.0201313
  16.9870113  63.2914913  76.5991313  25.1500113  64.2944913  87.3321313
  24.9950113  64.9044913  87.9361313  25.6840113  63.7364913  87.7381313
  25.2060113  64.3024913  87.4811313  13.8410113  55.0134913  77.5331313
  13.9700113  54.3054913  77.0411313  13.4740113  54.6954913  78.2581313
  13.8060113  54.8614913  77.5681313  23.5340113  62.6944913  77.9901313
  23.5930113  63.3444913  78.5691313  23.3450113  61.9984913  78.4811313
  23.5150113  62.6874913  78.1481313  28.7600113  67.0234913  83.8591313
  28.2810113  67.3214913  83.1931313  28.4040113  66.2474913  84.0371313
  28.6370113  66.9524913  83.7871313  18.0300113  57.2114913  74.5021313
  17.5190113  57.2644913  73.7961313  18.8140113  57.4514913  74.2061313
  18.0700113  57.2544913  74.3541313  22.7570113  64.7414913  82.4211313
  21.9100113  64.5474913  82.5021313  23.0810113  64.5764913  83.2141313
  22.6790113  64.6884913  82.5501313  16.6050113  64.4344913  84.7371313
  17.3270113  64.9224913  84.7001313  16.3350113  64.4044913  83.9081313
  16.6720113  64.5024913  84.6091313  19.8350113  59.6054913  81.4721313
  20.6810113  59.4154913  81.5701313  19.4650113  58.8284913  81.3341313
  19.9050113  59.4624913  81.4661313  14.6560113  60.9434913  78.1271313
  15.1450113  60.6514913  78.7881313  14.7850113  60.3504913  77.5001313
  14.7470113  60.8124913  78.1321313  29.6910113  63.9654913  84.9781313
  29.6840113  63.1894913  85.3761313  28.8500113  64.1994913  84.9711313
  29.5660113  63.8854913  85.0361313  19.1810113  62.3774913  73.6131313
  18.5710113  61.9724913  74.0871313  18.7950113  62.4954913  72.8401313
  19.0340113  62.3344913  73.5691313  30.9470113  64.0364913  82.4151313
  30.6610113  64.4374913  83.1351313  31.8070113  63.9744913  82.5421313
  31.0320113  64.0864913  82.5401313  20.6360113  60.8384913  76.3231313
  20.9080113  61.6644913  76.3901313  19.7730113  60.9134913  76.2271313
  20.5490113  60.9714913  76.3181313  14.1160113  56.8084913  82.8591313
  14.1600113  57.1524913  82.0581313  14.8710113  57.0454913  83.2261313
  14.2340113  56.8944913  82.7951313  28.6830113  68.2724913  74.9261313
  29.0170113  67.4664913  74.9611313  27.9280113  68.2004913  75.3561313
  28.6210113  68.1424913  74.9951313  29.1650113  60.1064913  80.5851313
  28.4200113  59.7834913  80.9031313  29.1670113  60.9324913  80.8651313
  29.0550113  60.1804913  80.6731313  26.0570113  66.1474913  74.3291313
  26.7410113  65.6334913  74.1601313  25.6400113  66.1934913  73.5641313
  26.0960113  66.0784913  74.1911313  20.7390113  67.2974913  85.6331313
  20.4410113  67.8894913  86.2001313  20.7940113  67.7394913  84.8841313
  20.7030113  67.4504913  85.6061313  28.0770113  56.4364913  88.0461313
  28.8210113  56.8884913  87.9831313  27.5110113  56.9064913  87.5771313
  28.1040113  56.5734913  87.9681313  23.2550113  63.7204913  85.1241313
  23.7310113  64.0944913  85.7521313  22.4320113  63.8544913  85.3831313
  23.2040113  63.7954913  85.2551313  29.3620113  54.4164913  85.7161313
  29.0820113  55.2414913  85.6721313  30.0780113  54.4694913  86.2121313
  29.4270113  54.5464913  85.7831313  21.7170113  55.1314913  87.7451313
  22.4220113  55.4514913  87.3431313  21.9580113  54.3244913  87.9721313
  21.8560113  55.0594913  87.7191313  30.7830113  60.6714913  74.5731313
  31.1610113  61.3484913  74.1731313  29.9410113  60.8954913  74.6041313
  30.7140113  60.8044913  74.5181313  22.2960113  64.1174913  73.6561313
  21.4910113  63.9404913  73.3711313  22.2630113  64.9684913  73.8481313
  22.1720113  64.2164913  73.6431313  18.2260113  60.1844913  83.8061313
  18.6660113  60.0814913  83.0601313  18.7710113  59.8714913  84.4111313
  18.3710113  60.1234913  83.7851313  25.9300113  60.8234913  85.6961313
  26.2320113  61.2434913  86.3991313  25.9660113  59.9834913  85.9281313
  25.9800113  60.7614913  85.8341313  28.4780113  60.2704913  77.9481313
  28.6850113  60.0694913  78.7721313  29.2340113  60.5384913  77.6061313
  28.6200113  60.2804913  78.0191313  21.7730113  55.1694913  83.8531313
  20.9470113  55.0204913  84.0901313  21.7330113  55.2044913  82.9821313
  21.6450113  55.1524913  83.7591313  29.5000113  56.3534913  79.4221313
  28.7860113  55.8824913  79.5931313  29.3380113  56.6944913  78.6361313
  29.3710113  56.3344913  79.3311313  29.9430113  64.2974913  77.8021313
  30.4190113  63.5684913  77.7541313  29.1220113  64.0114913  77.7261313
  29.8920113  64.1474913  77.7831313  17.4020113  58.3114913  77.1131313
  17.5280113  57.9824913  76.3151313  16.5900113  58.0624913  77.3121313
  17.3010113  58.2264913  77.0251313  26.1590113  65.4644913  80.1571313
  26.2350113  65.8054913  80.9561313  26.3280113  64.6174913  80.2781313
  26.1950113  65.3894913  80.2931313  23.6810113  64.7384913  79.7221313
  23.3830113  64.4234913  80.4791313  24.3760113  65.2114913  79.9571313
  23.7400113  64.7614913  79.8691313  24.3110113  66.7844913  85.1821313
  23.6170113  67.1864913  85.5251313  24.9880113  67.2174913  85.5211313
  24.3080113  66.9074913  85.2831313  17.3790113  60.3224913  87.5291313
  17.7540113  60.9414913  87.0421313  18.0530113  59.8484913  87.8141313
  17.5340113  60.3444913  87.4991313  15.1540113  58.7704913  86.8041313
  15.2310113  58.6014913  85.9511313  15.9000113  59.1764913  87.0011313
  15.2750113  58.8054913  86.7071313  30.7130113  61.4104913  77.2441313
  30.8160113  61.3524913  76.3801313  31.4540113  61.0784913  77.5621313
  30.8380113  61.3534913  77.1631313  24.6330113  68.3754913  78.3511313
  24.4280113  69.2084913  78.1921313  23.8580113  67.9934913  78.4731313
  24.4880113  68.4424913  78.3461313  29.8150113  61.5564913  86.6001313
  29.8130113  60.6934913  86.7241313  29.8820113  61.8804913  87.4071313
  29.8250113  61.4764913  86.7371313  14.5510113  63.9964913  87.0281313
  14.8710113  64.2154913  86.2471313  14.4510113  63.1314913  86.9731313
  14.5830113  63.9014913  86.9051313  16.0070113  59.9324913  73.6461313
  15.3350113  59.9464913  74.2021313  16.1020113  59.0844913  73.4621313
  15.9220113  59.8094913  73.7011313  24.6880113  56.5464913  81.2361313
  23.9880113  57.0644913  81.1801313  24.7260113  56.1664913  80.4521313
  24.5900113  56.5674913  81.1121313  19.9950113  68.6374913  74.7601313
  20.4360113  68.7174913  75.5081313  19.1900113  68.4214913  75.0181313
  19.9410113  68.6174913  74.9091313  28.2860113  57.0624913  84.0361313
  29.1410113  57.1614913  84.1811313  27.9170113  57.6154913  84.6011313
  28.3580113  57.1594913  84.1411313  28.5900113  62.3424913  82.5271313
  29.2560113  62.8834913  82.6871313  28.2450113  62.6534913  81.7881313
  28.6370113  62.4684913  82.4421313  17.3240113  67.7074913  75.3611313
  17.0800113  67.4004913  76.1411313  17.2910113  67.0044913  74.8451313
  17.2830113  67.5584913  75.4001313  20.1430113  65.9524913  74.1041313
  19.3250113  65.6844913  74.2441313  20.1150113  66.8044913  74.2891313
  20.0180113  66.0394913  74.1521313  19.7430113  56.2654913  85.8631313
  18.8790113  56.3494913  85.9431313  19.9630113  55.7514913  86.5321313
  19.6480113  56.2024913  85.9741313  31.7610113  54.9004913  87.1921313
  31.7090113  54.8564913  88.0621313  32.4480113  54.3974913  87.0021313
  31.8550113  54.8204913  87.2921313  23.8460113  57.0134913  84.2371313
  23.1090113  56.5594913  84.3501313  24.4170113  56.6114913  84.7601313
  23.8210113  56.8864913  84.3311313  26.5780113  67.8614913  86.0251313
  26.7840113  68.1624913  86.8171313  26.5170113  68.5834913  85.5401313
  26.5990113  68.0124913  86.0701313  22.1450113  54.5944913  74.0681313
  22.2230113  54.8414913  73.2351313  21.4020113  54.9714913  74.3261313
  22.0470113  54.6864913  73.9831313  31.3900113  66.5004913  85.4831313
  31.3580113  65.6384913  85.3481313  30.6970113  66.8024913  85.0491313
  31.2830113  66.4174913  85.3991313  29.4950113  69.7604913  84.2801313
  30.0220113  69.6774913  83.5891313  29.1040113  68.9824913  84.3341313
  29.5150113  69.6334913  84.1861313  16.9630113  56.3484913  86.5111313
  16.6200113  55.5814913  86.2771313  16.2680113  56.8724913  86.5751313
  16.8100113  56.3124913  86.4861313  26.0090113  55.2044913  83.4881313
  26.6790113  55.7484913  83.6151313  25.5060113  55.6284913  82.9151313
  26.0340113  55.3474913  83.4221313  25.3680113  61.0124913  80.9811313
  25.9190113  60.4054913  81.2811313  24.9430113  61.2754913  81.6961313
  25.3870113  60.9614913  81.1301313  15.6160113  59.6624913  80.4671313
  15.2480113  59.9644913  81.1981313  16.1500113  59.0334913  80.7511313
  15.6400113  59.6144913  80.6171313  27.3380113  62.8434913  77.5431313
  27.4060113  61.9934913  77.7241313  26.5150113  62.9294913  77.2651313
  27.2260113  62.7304913  77.5291313  21.2570113  63.7344913  76.4811313
  21.3570113  63.8734913  75.6261313  22.0750113  63.6744913  76.7771313
  21.3920113  63.7454913  76.3981313  26.4920113  68.0634913  76.2831313
  26.2410113  67.9354913  77.1091313  26.1750113  67.3684913  75.8621313
  26.4080113  67.9424913  76.3431313  31.1360113  59.7214913  84.4031313
  30.3030113  59.9714913  84.3311313  31.0800113  58.8814913  84.6321313
  31.0050113  59.6344913  84.4261313  23.3780113  66.2714913  75.7131313
  24.0950113  65.9244913  75.3571313  23.3440113  67.0714913  75.3651313
  23.4790113  66.3384913  75.6091313  24.7870113  54.9124913  59.9518903
  24.5420113  55.4004913  59.2718903  25.6500113  54.8394913  59.8518903
  24.8780113  54.9734913  59.8368903  24.5960113  61.8284913  64.6228903
  24.0720113  62.4244913  64.9858903  24.9930113  61.4604913  65.3068903
  24.5770113  61.8624913  64.7778903  14.4650113  65.9684913  60.0788903
  14.0240113  66.0864913  60.8218903  14.1820113  65.1934913  59.7938903
  14.3580113  65.8714913  60.1468903  30.7400113  69.2694913  57.5938903
  31.4410113  68.7504913  57.5898903  30.1530113  68.8244913  57.1248903
  30.7570113  69.1264913  57.5238903  14.2080113  59.7604913  56.5858903
  13.4300113  59.9224913  56.2258903  14.2470113  58.8894913  56.6078903
  14.0990113  59.6554913  56.5358903  17.3470113  65.0234913  55.2578903
  16.9550113  64.6524913  54.5718903  17.2670113  64.4254913  55.8868903
  17.2770113  64.8804913  55.2488903  27.2670113  62.8954913  61.2988903
  27.3470113  62.8994913  60.4298903  26.6830113  62.2634913  61.4478903
  27.1920113  62.8024913  61.1928903  16.9740113  66.6644913  59.1578903
  17.5820113  66.4944913  59.7608903  16.2230113  66.5244913  59.5788903
  16.9530113  66.6184913  59.3088903  21.2560113  55.9994913  59.1068903
  21.1860113  56.6764913  58.5608903  21.9970113  55.6114913  58.8578903
  21.3550113  56.0424913  58.9888903  14.4050113  68.7034913  66.3338903
  14.5340113  68.4234913  67.1498903  13.7950113  68.1624913  66.0248903
  14.3340113  68.5824913  66.4088903  20.9790113  66.2284913  71.4008903
  20.7430113  66.2254913  72.2408903  20.2310113  66.0804913  70.9768903
  20.8330113  66.2054913  71.4618903  15.8510113  63.2244913  60.5358903
  15.3890113  62.8324913  59.9088903  16.5510113  62.7114913  60.6278903
  15.8860113  63.0914913  60.4568903  20.3590113  58.8344913  65.8828903
  21.0370113  58.8524913  65.3338903  20.3140113  57.9984913  66.1278903
  20.4520113  58.7134913  65.8378903  17.8520113  61.3244913  60.5588903
  18.6690113  61.1374913  60.8018903  17.3750113  60.7104913  60.9548903
  17.9020113  61.2064913  60.6538903  22.0560113  67.3054913  63.1688903
  22.4040113  66.5064913  63.1988903  22.7210113  67.8094913  62.9138903
  22.2060113  67.2614913  63.1358903  22.1130113  66.7544913  59.3798903
  22.4440113  66.1104913  59.8658903  22.3530113  66.5434913  58.5688903
  22.1970113  66.6284913  59.3318903  24.0810113  60.8854913  70.7188903
  23.2330113  60.7864913  70.5408903  24.1100113  61.6304913  71.1728903
  23.9600113  60.9814913  70.7598903  18.4490113  56.4184913  59.8248903
  18.1530113  56.9194913  59.1748903  19.3160113  56.4964913  59.7678903
  18.5330113  56.5044913  59.7208903  28.6390113  53.8454913  69.8328903
  28.4810113  54.6144913  69.4508903  27.8670113  53.6254913  70.1768903
  28.5010113  53.9264913  69.8278903  21.4280113  55.5604913  62.0478903
  21.5010113  56.4204913  62.1768903  21.3900113  55.4854913  61.1798903
  21.4330113  55.6764913  61.9388903  26.1010113  58.4864913  54.3468903
  25.6510113  59.1674913  54.6538903  26.2150113  57.9824913  55.0498903
  26.0520113  58.5124913  54.4958903  14.3070113  60.9854913  63.5488903
  14.0510113  61.8164913  63.4738903  13.6430113  60.6024913  63.9658903
  14.1710113  61.0514913  63.5998903  20.0570113  68.5394913  58.9288903
  19.4780113  68.2644913  59.5208903  20.6810113  67.9304913  58.9538903
  20.0640113  68.4094913  59.0198903  17.3360113  55.8024913  64.0398903
  16.8150113  55.1744913  63.7318903  17.9270113  55.3654913  64.5108903
  17.3470113  55.6444913  64.0638903  20.6420113  57.9354913  73.3378903
  20.7590113  57.4814913  72.6018903  20.9300113  58.7334913  73.1348903
  20.7020113  57.9864913  73.1988903  31.4950113  58.4594913  60.6418903
  31.1490113  59.1374913  61.0678903  30.8590113  57.8614913  60.6578903
  31.3500113  58.4714913  60.7068903  16.3750113  57.5324913  72.3218903
  15.5970113  57.1424913  72.2498903  16.8660113  57.1204913  71.7308903
  16.3320113  57.4134913  72.2238903  16.5800113  67.8524913  62.8798903
  17.0030113  67.4964913  62.2058903  16.9040113  67.4304913  63.5718903
  16.6900113  67.7374913  62.8828903  23.0240113  55.1754913  71.4898903
  23.2020113  54.3664913  71.2148903  22.8810113  55.6164913  70.7508903
  23.0290113  55.1214913  71.3398903  23.6180113  60.1014913  60.2628903
  23.9050113  59.8694913  59.4728903  24.3500113  60.1804913  60.7318903
  23.7680113  60.0784913  60.2158903  24.3400113  60.4404913  55.3838903
  24.6210113  61.2284913  55.6328903  23.5640113  60.6054913  55.0208903
  24.2670113  60.5814913  55.3668903  31.1700113  56.7824913  66.0108903
  31.9270113  56.8544913  65.5828903  31.2330113  56.0094913  66.4098903
  31.2910113  56.6794913  66.0058903  13.7230113  58.0804913  69.9078903
  13.7190113  58.6674913  70.5538903  14.3170113  58.3924913  69.3508903
  13.8100113  58.2134913  69.9208903  26.0610113  68.4144913  70.4498903
  26.0270113  68.7964913  71.2338903  26.9150113  68.3724913  70.2788903
  26.1820113  68.4644913  70.5408903  23.1990113  68.6114913  55.1998903
  23.0180113  69.1564913  55.8568903  23.9650113  68.9014913  54.8988903
  23.2850113  68.7354913  55.2528903  26.7060113  56.5074913  56.2538903
  27.2460113  55.8254913  56.3298903  26.7680113  56.9054913  57.0278903
  26.7950113  56.4654913  56.3798903  14.6600113  57.6754913  58.8228903
  14.5460113  56.8114913  58.8538903  14.1850113  57.9694913  59.4928903
  14.5730113  57.5914913  58.9258903  23.9640113  58.8834913  57.5678903
  23.4560113  58.2214913  57.3138903  24.0160113  59.3874913  56.8578903
  23.8970113  58.8604913  57.4258903  23.9640113  55.8244913  57.4588903
  23.5090113  55.4224913  56.8328903  24.7370113  55.9794913  57.0838903
  24.0110113  55.7884913  57.3108903  22.5620113  58.1914913  61.9808903
  22.6360113  58.7594913  61.3228903  22.6830113  58.6834913  62.6908903
  22.5900113  58.3484913  61.9888903  27.7870113  68.0264913  60.3928903
  28.4880113  67.5444913  60.5818903  27.1270113  67.4574913  60.4378903
  27.7930113  67.8714913  60.4268903  18.1630113  68.9364913  69.6048903
  19.0040113  68.9994913  69.3828903  18.1260113  69.3334913  70.3808903
  18.2820113  69.0044913  69.6868903  17.1700113  54.0144913  60.3288903
  17.7060113  54.7024913  60.3188903  17.1730113  53.7404913  59.5008903
  17.2490113  54.0754913  60.2048903  20.1260113  64.4474913  64.3538903
  20.2980113  64.2374913  65.1828903  19.4710113  63.9134913  64.1378903
  20.0550113  64.3374913  64.4448903  26.3540113  58.3614913  67.8688903
  26.2590113  58.6804913  68.6748903  25.7610113  57.7224913  67.8308903
  26.2520113  58.3134913  67.9828903  20.8760113  64.3854913  66.9438903
  20.9290113  65.2324913  67.1458903  20.5910113  64.0154913  67.6808903
  20.8420113  64.4554913  67.0818903  27.0530113  65.0804913  66.0738903
  26.5390113  64.6684913  66.6448903  26.9270113  65.9244913  66.2548903
  26.9590113  65.1444913  66.1848903  27.6100113  54.3054913  60.7048903
  27.6590113  53.9874913  61.5158903  27.9330113  53.6614913  60.2118903
  27.6650113  54.1634913  60.7518903  13.6970113  68.7564913  73.1548903
  14.4530113  69.1054913  73.4128903  13.8740113  67.9034913  73.0978903
  13.8350113  68.6814913  73.1848903  30.0740113  58.5414913  69.0128903
  30.8460113  58.3164913  69.3498903  29.5990113  58.7584913  69.7128903
  30.1180113  58.5404913  69.1658903  17.6180113  57.8244913  61.9828903
  17.8900113  57.3944913  61.2748903  17.4420113  57.1884913  62.5538903
  17.6320113  57.6674913  61.9628903  30.3060113  65.5194913  56.2008903
  30.4250113  65.2324913  57.0158903  31.1130113  65.5404913  55.8708903
  30.4420113  65.4804913  56.2728903  17.4420113  65.2514913  61.5318903
  18.2930113  65.1714913  61.3588903  17.0850113  64.5694913  61.1198903
  17.5150113  65.1384913  61.4448903  15.7590113  58.9264913  65.0648903
  16.6020113  59.1464913  65.0218903  15.3700113  59.4994913  64.5338903
  15.8260113  59.0434913  64.9798903  28.2010113  62.0564913  55.7858903
  27.9810113  62.7874913  55.3638903  27.7530113  62.1074913  56.5328903
  28.1020113  62.1714913  55.8338903  19.8100113  65.2584913  59.7668903
  20.5230113  65.7534913  59.8568903  20.0320113  64.6914913  59.1408903
  19.9480113  65.2474913  59.6878903  32.3880113  56.9174913  55.2388903
  31.7260113  56.3494913  55.2618903  32.1950113  57.4294913  54.5588903
  32.2620113  56.9094913  55.1418903  13.9660113  66.9014913  63.0868903
  13.2990113  67.3894913  63.3628903  14.6460113  67.4464913  63.1158903
  13.9680113  67.0534913  63.1318903  21.6130113  60.6114913  73.1828903
  21.1290113  61.1884913  73.6248903  21.5850113  60.9064913  72.3618903
  21.5370113  60.7404913  73.1268903  32.7110113  61.2954913  67.7948903
  32.9260113  60.4954913  67.5188903  31.8610113  61.3554913  67.6058903
  32.6170113  61.1864913  67.7258903  14.0320113  63.5854913  58.1898903
  13.8470113  62.7464913  58.3418903  14.6910113  63.5494913  57.6198903
  14.1020113  63.4564913  58.1278903  30.3900113  56.4754913  57.5178903
  31.1360113  56.0684913  57.7168903  30.6530113  57.1904913  57.0928903
  30.5390113  56.5214913  57.4848903  24.3330113  68.9614913  62.0938903
  23.8100113  69.5954913  61.8008903  24.6430113  68.5974913  61.3648903
  24.3010113  69.0014913  61.9428903  14.2040113  67.7494913  57.7648903
  14.7560113  68.3184913  58.1288903  13.9720113  67.2344913  58.4298903
  14.2510113  67.7574913  57.9168903  18.4080113  66.7494913  64.8538903
  18.8750113  67.0384913  65.5318903  18.9800113  66.2714913  64.3998903
  18.5620113  66.7214913  64.8868903  26.8440113  58.7634913  62.5908903
  27.1880113  58.9154913  63.3778903  26.3910113  58.0254913  62.7038903
  26.8280113  58.6764913  62.7238903  14.0340113  66.1984913  55.3928903
  14.7900113  65.7664913  55.4508903  14.0490113  66.7304913  56.0838903
  14.1480113  66.2134913  55.5038903  14.9740113  64.4194913  63.3978903
  15.4050113  64.2904913  62.6508903  14.7690113  65.2674913  63.3718903
  15.0070113  64.5254913  63.2838903  21.3200113  57.9834913  57.0478903
  21.3180113  57.8664913  56.1828903  21.1390113  58.8314913  57.1398903
  21.2930113  58.0914913  56.9338903  19.0580113  67.9354913  61.6798903
  19.1840113  68.7784913  61.8668903  19.7260113  67.5364913  62.0758903
  19.1760113  68.0014913  61.7658903  17.1880113  61.4184913  71.5418903
  16.6520113  60.9124913  72.0098903  17.2080113  61.0284913  70.7618903
  17.1110113  61.2854913  71.4958903  17.6730113  60.8154913  56.6818903
  17.5450113  60.3674913  57.4198903  17.0910113  60.4734913  56.1298903
  17.5680113  60.6984913  56.7098903  17.8400113  62.6454913  63.2808903
  17.0590113  62.5864913  62.8978903  17.9120113  61.8934913  63.7178903
  17.7350113  62.5264913  63.2888903  18.2700113  62.3824913  66.7488903
  18.2950113  61.7074913  66.1978903  17.6240113  62.8784913  66.4368903
  18.1790113  62.3554913  66.6218903  28.1650113  60.0954913  65.1448903
  27.5030113  60.4234913  65.6078903  28.3520113  60.7294913  64.5758903
  28.0950113  60.2374913  65.1288903  24.8100113  56.0014913  68.5738903
  24.9590113  55.1764913  68.3308903  25.1890113  56.0564913  69.3578903
  24.8880113  55.8874913  68.6538903  26.3580113  58.0644913  58.6558903
  26.8480113  58.7814913  58.5788903  25.5680113  58.3254913  58.3928903
  26.3140113  58.2084913  58.6058903  16.0690113  63.7374913  72.3078903
  16.0320113  64.2384913  71.5938903  16.4000113  62.9854913  72.0128903
  16.1120113  63.6994913  72.1588903  27.6720113  65.9424913  70.5658903
  28.1560113  66.6604913  70.6638903  28.0660113  65.5154913  69.9148903
  27.8020113  65.9854913  70.4838903  21.9680113  68.7874913  71.7428903
  22.3220113  68.6094913  72.5198903  21.5320113  68.0584913  71.5438903
  21.9560113  68.6534913  71.8288903  22.9400113  59.5344913  64.3808903
  23.4200113  60.2334913  64.5888903  23.3130113  58.8874913  64.8318903
  23.0660113  59.5424913  64.4778903  25.1290113  62.7034913  56.6548903
  25.1210113  63.4254913  56.1648903  24.4900113  62.8384913  57.2318903
  25.0340113  62.8304913  56.6678903  30.1010113  66.5734913  60.6358903
  30.4570113  66.2234913  61.3508903  30.0930113  65.9124913  60.0658903
  30.1530113  66.4234913  60.6568903  26.1590113  66.4904913  63.8798903
  25.3620113  66.7144913  64.1538903  26.4170113  65.8964913  64.4648903
  26.0790113  66.4354913  64.0068903  19.7220113  55.0454913  56.3158903
  19.8190113  54.9384913  57.1768903  19.0140113  55.5514913  56.2508903
  19.6320113  55.1044913  56.4338903  29.4190113  64.4884913  68.7258903
  29.4740113  64.6134913  67.8638903  30.1720113  64.8084913  69.0278903
  29.5380113  64.5534913  68.6428903  30.4510113  54.7864913  71.7128903
  29.8140113  54.3864913  71.2708903  30.4770113  54.3554913  72.4708903
  30.3610113  54.6644913  71.7588903  16.8440113  63.3524913  57.5588903
  17.1680113  62.5734913  57.3368903  17.4900113  63.7204913  58.0138903
  16.9870113  63.2914913  57.5928903  25.1500113  64.2944913  68.3258903
  24.9950113  64.9044913  68.9298903  25.6840113  63.7364913  68.7318903
  25.2060113  64.3024913  68.4748903  13.8410113  55.0134913  58.5268903
  13.9700113  54.3054913  58.0348903  13.4740113  54.6954913  59.2518903
  13.8060113  54.8614913  58.5618903  23.5340113  62.6944913  58.9838903
  23.5930113  63.3444913  59.5628903  23.3450113  61.9984913  59.4748903
  23.5150113  62.6874913  59.1418903  28.7600113  67.0234913  64.8528903
  28.2810113  67.3214913  64.1868903  28.4040113  66.2474913  65.0308903
  28.6370113  66.9524913  64.7808903  18.0300113  57.2114913  55.4958903
  17.5190113  57.2644913  54.7898903  18.8140113  57.4514913  55.1998903
  18.0700113  57.2544913  55.3478903  22.7570113  64.7414913  63.4148903
  21.9100113  64.5474913  63.4958903  23.0810113  64.5764913  64.2078903
  22.6790113  64.6884913  63.5438903  16.6050113  64.4344913  65.7308903
  17.3270113  64.9224913  65.6938903  16.3350113  64.4044913  64.9018903
  16.6720113  64.5024913  65.6028903  19.8350113  59.6054913  62.4658903
  20.6810113  59.4154913  62.5638903  19.4650113  58.8284913  62.3278903
  19.9050113  59.4624913  62.4598903  14.6560113  60.9434913  59.1208903
  15.1450113  60.6514913  59.7818903  14.7850113  60.3504913  58.4938903
  14.7470113  60.8124913  59.1258903  29.6910113  63.9654913  65.9718903
  29.6840113  63.1894913  66.3698903  28.8500113  64.1994913  65.9648903
  29.5660113  63.8854913  66.0298903  19.1810113  62.3774913  54.6068903
  18.5710113  61.9724913  55.0808903  18.7950113  62.4954913  53.8338903
  19.0340113  62.3344913  54.5628903  16.0000113  65.4864913  70.0088903
  15.5790113  64.9684913  69.4478903  15.6480113  66.2724913  69.8658903
  15.8860113  65.5264913  69.9048903  30.9470113  64.0364913  63.4088903
  30.6610113  64.4374913  64.1288903  31.8070113  63.9744913  63.5358903
  31.0320113  64.0864913  63.5338903  20.6360113  60.8384913  57.3168903
  20.9080113  61.6644913  57.3838903  19.7730113  60.9134913  57.2208903
  20.5490113  60.9714913  57.3118903  28.6090113  57.9604913  71.9488903
  28.0840113  58.4194913  72.4728903  28.2480113  57.1654913  71.9428903
  28.4780113  57.9104913  72.0248903  14.1160113  56.8084913  63.8528903
  14.1600113  57.1524913  63.0518903  14.8710113  57.0454913  64.2198903
  14.2340113  56.8944913  63.7888903  27.1010113  61.5294913  72.0248903
  27.1740113  61.6334913  72.8878903  26.4670113  62.0874913  71.8038903
  27.0180113  61.6274913  72.1198903  29.3690113  61.8484913  70.3898903
  29.6880113  62.6344913  70.5928903  28.9990113  61.5784913  71.1328903
  29.3620113  61.9244913  70.5298903  28.6830113  68.2724913  55.9198903
  29.0170113  67.4664913  55.9548903  27.9280113  68.2004913  56.3498903
  28.6210113  68.1424913  55.9888903  29.1650113  60.1064913  61.5788903
  28.4200113  59.7834913  61.8968903  29.1670113  60.9324913  61.8588903
  29.0550113  60.1804913  61.6668903  32.0670113  62.3904913  73.1248903
  32.0150113  62.0494913  72.3238903  32.8040113  62.8574913  73.1028903
  32.1680113  62.4094913  73.0028903  31.6050113  66.0664913  69.3308903
  32.2330113  65.5174913  69.0748903  31.5440113  66.6314913  68.6688903
  31.6890113  66.0694913  69.1948903  26.0570113  66.1474913  55.3228903
  26.7410113  65.6334913  55.1538903  25.6400113  66.1934913  54.5578903
  26.0960113  66.0784913  55.1848903  20.7390113  67.2974913  66.6268903
  20.4410113  67.8894913  67.1938903  20.7940113  67.7394913  65.8778903
  20.7030113  67.4504913  66.5998903  18.7180113  66.2474913  70.0248903
  17.9120113  65.9574913  70.1918903  18.6290113  67.1154913  70.0308903
  18.5860113  66.3324913  70.0498903  28.0770113  56.4364913  69.0398903
  28.8210113  56.8884913  68.9768903  27.5110113  56.9064913  68.5708903
  28.1040113  56.5734913  68.9618903  23.2550113  63.7204913  66.1178903
  23.7310113  64.0944913  66.7458903  22.4320113  63.8544913  66.3768903
  23.2040113  63.7954913  66.2488903  19.9650113  59.3234913  68.8588903
  20.1260113  58.5794913  69.2858903  19.9200113  59.0744913  68.0238903
  19.9820113  59.1764913  68.7988903  29.3620113  54.4164913  66.7098903
  29.0820113  55.2414913  66.6658903  30.0780113  54.4694913  67.2058903
  29.4270113  54.5464913  66.7768903  21.7170113  55.1314913  68.7388903
  22.4220113  55.4514913  68.3368903  21.9580113  54.3244913  68.9658903
  21.8560113  55.0594913  68.7128903  25.0110113  65.9754913  71.7238903
  25.7680113  66.2614913  71.3978903  24.4640113  66.0274913  71.0458903
  25.0420113  66.0254913  71.5748903  28.9200113  68.5254913  70.2278903
  29.2660113  68.7954913  70.9818903  29.2140113  69.1074913  69.6478903
  29.0150113  68.6514913  70.2538903  30.7830113  60.6714913  55.5668903
  31.1610113  61.3484913  55.1668903  29.9410113  60.8954913  55.5978903
  30.7140113  60.8044913  55.5118903  22.2960113  64.1174913  54.6498903
  21.4910113  63.9404913  54.3648903  22.2630113  64.9684913  54.8418903
  22.1720113  64.2164913  54.6368903  18.2260113  60.1844913  64.7998903
  18.6660113  60.0814913  64.0538903  18.7710113  59.8714913  65.4048903
  18.3710113  60.1234913  64.7788903  26.2420113  59.2864913  70.3918903
  25.5940113  59.7564913  70.7398903  26.8070113  59.1974913  71.0508903
  26.2300113  59.3424913  70.5408903  25.9300113  60.8234913  66.6898903
  26.2320113  61.2434913  67.3928903  25.9660113  59.9834913  66.9218903
  25.9800113  60.7614913  66.8278903  28.4780113  60.2704913  58.9418903
  28.6850113  60.0694913  59.7658903  29.2340113  60.5384913  58.5998903
  28.6200113  60.2804913  59.0128903  21.7730113  55.1694913  64.8468903
  20.9470113  55.0204913  65.0838903  21.7330113  55.2044913  63.9758903
  21.6450113  55.1524913  64.7528903  29.5000113  56.3534913  60.4158903
  28.7860113  55.8824913  60.5868903  29.3380113  56.6944913  59.6298903
  29.3710113  56.3344913  60.3248903  29.9430113  64.2974913  58.7958903
  30.4190113  63.5684913  58.7478903  29.1220113  64.0114913  58.7198903
  29.8920113  64.1474913  58.7768903  23.4140113  66.2094913  69.6348903
  22.6190113  66.1454913  69.9858903  23.4850113  67.0564913  69.4398903
  23.3070113  66.3244913  69.6578903  14.3380113  55.5674913  70.8818903
  14.1980113  56.3624913  70.5508903  13.5520113  55.3244913  71.1708903
  14.2010113  55.6494913  70.8758903  17.4020113  58.3114913  58.1068903
  17.5280113  57.9824913  57.3088903  16.5900113  58.0624913  58.3058903
  17.3010113  58.2264913  58.0188903  26.1590113  65.4644913  61.1508903
  26.2350113  65.8054913  61.9498903  26.3280113  64.6174913  61.2718903
  26.1950113  65.3894913  61.2868903  23.6810113  64.7384913  60.7158903
  23.3830113  64.4234913  61.4728903  24.3760113  65.2114913  60.9508903
  23.7400113  64.7614913  60.8628903  23.9030113  68.8564913  68.7428903
  24.5900113  68.7424913  69.2678903  24.0370113  69.6474913  68.3988903
  24.0240113  68.9564913  68.7698903  32.0790113  61.4654913  70.5538903
  31.2240113  61.3434913  70.6798903  32.2320113  61.0704913  69.7908903
  31.9750113  61.3884913  70.4598903  26.5920113  62.1304913  69.1298903
  26.3370113  61.4114913  69.5518903  27.4130113  62.2464913  69.3998903
  26.6760113  62.0414913  69.2318903  24.5260113  63.3204913  72.3168903
  24.8490113  64.0064913  71.8848903  23.8220113  63.6434913  72.7188903
  24.4690113  63.4694913  72.3118903  24.3110113  66.7844913  66.1758903
  23.6170113  67.1864913  66.5188903  24.9880113  67.2174913  66.5148903
  24.3080113  66.9074913  66.2768903  29.6880113  69.3774913  72.7558903
  30.4640113  68.9874913  72.8388903  29.2190113  69.0414913  73.4108903
  29.7330113  69.2704913  72.8648903  17.3790113  60.3224913  68.5228903
  17.7540113  60.9414913  68.0358903  18.0530113  59.8484913  68.8078903
  17.5340113  60.3444913  68.4928903  15.1540113  58.7704913  67.7978903
  15.2310113  58.6014913  66.9448903  15.9000113  59.1764913  67.9948903
  15.2750113  58.8054913  67.7008903  30.7130113  61.4104913  58.2378903
  30.8160113  61.3524913  57.3738903  31.4540113  61.0784913  58.5558903
  30.8380113  61.3534913  58.1568903  17.7080113  56.1804913  70.2088903
  17.6270113  55.3364913  70.4148903  17.3940113  56.2244913  69.3958903
  17.6500113  56.0624913  70.1188903  24.6330113  68.3754913  59.3448903
  24.4280113  69.2084913  59.1858903  23.8580113  67.9934913  59.4668903
  24.4880113  68.4424913  59.3398903  29.8150113  61.5564913  67.5938903
  29.8130113  60.6934913  67.7178903  29.8820113  61.8804913  68.4008903
  29.8250113  61.4764913  67.7308903  14.5510113  63.9964913  68.0218903
  14.8710113  64.2154913  67.2408903  14.4510113  63.1314913  67.9668903
  14.5830113  63.9014913  67.8988903  16.0070113  59.9324913  54.6398903
  15.3350113  59.9464913  55.1958903  16.1020113  59.0844913  54.4558903
  15.9220113  59.8094913  54.6948903  25.6940113  56.3564913  71.3758903
  25.7860113  57.0684913  71.8698903  25.0570113  55.9114913  71.7728903
  25.6130113  56.3954913  71.5078903  24.6880113  56.5464913  62.2298903
  23.9880113  57.0644913  62.1738903  24.7260113  56.1664913  61.4458903
  24.5900113  56.5674913  62.1058903  19.9950113  68.6374913  55.7538903
  20.4360113  68.7174913  56.5018903  19.1900113  68.4214913  56.0118903
  19.9410113  68.6174913  55.9028903  28.2860113  57.0624913  65.0298903
  29.1410113  57.1614913  65.1748903  27.9170113  57.6154913  65.5948903
  28.3580113  57.1594913  65.1348903  19.3140113  63.2884913  69.4068903
  18.9180113  64.0624913  69.4818903  18.9080113  62.9154913  68.7308903
  19.1960113  63.3474913  69.3178903  28.5900113  62.3424913  63.5208903
  29.2560113  62.8834913  63.6808903  28.2450113  62.6534913  62.7818903
  28.6370113  62.4684913  63.4358903  17.3240113  67.7074913  56.3548903
  17.0800113  67.4004913  57.1348903  17.2910113  67.0044913  55.8388903
  17.2830113  67.5584913  56.3938903  20.1430113  65.9524913  55.0978903
  19.3250113  65.6844913  55.2378903  20.1150113  66.8044913  55.2828903
  20.0180113  66.0394913  55.1458903  19.7430113  56.2654913  66.8568903
  18.8790113  56.3494913  66.9368903  19.9630113  55.7514913  67.5258903
  19.6480113  56.2024913  66.9678903  31.7610113  54.9004913  68.1858903
  31.7090113  54.8564913  69.0558903  32.4480113  54.3974913  67.9958903
  31.8550113  54.8204913  68.2858903  23.8460113  57.0134913  65.2308903
  23.1090113  56.5594913  65.3438903  24.4170113  56.6114913  65.7538903
  23.8210113  56.8864913  65.3248903  26.5780113  67.8614913  67.0188903
  26.7840113  68.1624913  67.8108903  26.5170113  68.5834913  66.5338903
  26.5990113  68.0124913  67.0638903  21.3490113  61.3424913  70.4348903
  21.0270113  60.7664913  69.8648903  20.9900113  62.0974913  70.1888903
  21.2490113  61.3684913  70.3148903  31.3900113  66.5004913  66.4768903
  31.3580113  65.6384913  66.3418903  30.6970113  66.8024913  66.0428903
  31.2830113  66.4174913  66.3928903  29.4950113  69.7604913  65.2738903
  30.0220113  69.6774913  64.5828903  29.1040113  68.9824913  65.3278903
  29.5150113  69.6334913  65.1798903  16.9630113  56.3484913  67.5048903
  16.6200113  55.5814913  67.2708903  16.2680113  56.8724913  67.5688903
  16.8100113  56.3124913  67.4798903  26.0090113  55.2044913  64.4818903
  26.6790113  55.7484913  64.6088903  25.5060113  55.6284913  63.9088903
  26.0340113  55.3474913  64.4158903  25.3680113  61.0124913  61.9748903
  25.9190113  60.4054913  62.2748903  24.9430113  61.2754913  62.6898903
  25.3870113  60.9614913  62.1238903  15.6160113  59.6624913  61.4608903
  15.2480113  59.9644913  62.1918903  16.1500113  59.0334913  61.7448903
  15.6400113  59.6144913  61.6108903  15.3040113  68.0704913  68.9718903
  14.7300113  68.4864913  69.4808903  16.0370113  68.5354913  69.0668903
  15.3280113  68.2004913  69.0608903  27.3380113  62.8434913  58.5368903
  27.4060113  61.9934913  58.7178903  26.5150113  62.9294913  58.2588903
  27.2260113  62.7304913  58.5228903  21.2570113  63.7344913  57.4748903
  21.3570113  63.8734913  56.6198903  22.0750113  63.6744913  57.7708903
  21.3920113  63.7454913  57.3918903  30.6120113  64.2164913  71.6878903
  31.2460113  64.0464913  72.2618903  31.0290113  64.6194913  71.0358903
  30.7670113  64.2514913  71.6768903  26.4920113  68.0634913  57.2768903
  26.2410113  67.9354913  58.1028903  26.1750113  67.3684913  56.8558903
  26.4080113  67.9424913  57.3368903  31.2370113  58.7804913  72.4258903
  31.0410113  59.4244913  72.9808903  30.5150113  58.2904913  72.4178903
  31.1020113  58.8034913  72.5068903  31.1360113  59.7214913  65.3968903
  30.3030113  59.9714913  65.3248903  31.0800113  58.8814913  65.6258903
  31.0050113  59.6344913  65.4198903  20.3960113  56.7094913  70.5908903
  20.6300113  56.1334913  69.9778903  19.5540113  56.5284913  70.7318903
  20.3060113  56.5974913  70.5208903  28.0230113  64.3274913  73.0428903
  28.8940113  64.2914913  73.0068903  27.8040113  64.7474913  72.3108903
  28.1200113  64.3834913  72.9298903  23.3780113  66.2714913  56.7068903
  24.0950113  65.9244913  56.3508903  23.3440113  67.0714913  56.3588903
  23.4790113  66.3384913  56.6028903  24.7870113  54.9124913  40.9456493
  24.5420113  55.4004913  40.2656493  25.6500113  54.8394913  40.8456493
  24.8780113  54.9734913  40.8306493  24.5960113  61.8284913  45.6166493
  24.0720113  62.4244913  45.9796493  24.9930113  61.4604913  46.3006493
  24.5770113  61.8624913  45.7716493  14.4650113  65.9684913  41.0726493
  14.0240113  66.0864913  41.8156493  14.1820113  65.1934913  40.7876493
  14.3580113  65.8714913  41.1406493  30.7400113  69.2694913  38.5876493
  31.4410113  68.7504913  38.5836493  30.1530113  68.8244913  38.1186493
  30.7570113  69.1264913  38.5176493  14.2080113  59.7604913  37.5796493
  13.4300113  59.9224913  37.2196493  14.2470113  58.8894913  37.6016493
  14.0990113  59.6554913  37.5296493  17.3470113  65.0234913  36.2516493
  16.9550113  64.6524913  35.5656493  17.2670113  64.4254913  36.8806493
  17.2770113  64.8804913  36.2426493  27.2670113  62.8954913  42.2926493
  27.3470113  62.8994913  41.4236493  26.6830113  62.2634913  42.4416493
  27.1920113  62.8024913  42.1866493  16.9740113  66.6644913  40.1516493
  17.5820113  66.4944913  40.7546493  16.2230113  66.5244913  40.5726493
  16.9530113  66.6184913  40.3026493  21.2560113  55.9994913  40.1006493
  21.1860113  56.6764913  39.5546493  21.9970113  55.6114913  39.8516493
  21.3550113  56.0424913  39.9826493  14.4050113  68.7034913  47.3276493
  14.5340113  68.4234913  48.1436493  13.7950113  68.1624913  47.0186493
  14.3340113  68.5824913  47.4026493  20.9790113  66.2284913  52.3946493
  20.7430113  66.2254913  53.2346493  20.2310113  66.0804913  51.9706493
  20.8330113  66.2054913  52.4556493  15.8510113  63.2244913  41.5296493
  15.3890113  62.8324913  40.9026493  16.5510113  62.7114913  41.6216493
  15.8860113  63.0914913  41.4506493  20.3590113  58.8344913  46.8766493
  21.0370113  58.8524913  46.3276493  20.3140113  57.9984913  47.1216493
  20.4520113  58.7134913  46.8316493  17.8520113  61.3244913  41.5526493
  18.6690113  61.1374913  41.7956493  17.3750113  60.7104913  41.9486493
  17.9020113  61.2064913  41.6476493  22.0560113  67.3054913  44.1626493
  22.4040113  66.5064913  44.1926493  22.7210113  67.8094913  43.9076493
  22.2060113  67.2614913  44.1296493  22.1130113  66.7544913  40.3736493
  22.4440113  66.1104913  40.8596493  22.3530113  66.5434913  39.5626493
  22.1970113  66.6284913  40.3256493  24.0810113  60.8854913  51.7126493
  23.2330113  60.7864913  51.5346493  24.1100113  61.6304913  52.1666493
  23.9600113  60.9814913  51.7536493  18.4490113  56.4184913  40.8186493
  18.1530113  56.9194913  40.1686493  19.3160113  56.4964913  40.7616493
  18.5330113  56.5044913  40.7146493  28.6390113  53.8454913  50.8266493
  28.4810113  54.6144913  50.4446493  27.8670113  53.6254913  51.1706493
  28.5010113  53.9264913  50.8216493  21.4280113  55.5604913  43.0416493
  21.5010113  56.4204913  43.1706493  21.3900113  55.4854913  42.1736493
  21.4330113  55.6764913  42.9326493  26.1010113  58.4864913  35.3406493
  25.6510113  59.1674913  35.6476493  26.2150113  57.9824913  36.0436493
  26.0520113  58.5124913  35.4896493  14.3070113  60.9854913  44.5426493
  14.0510113  61.8164913  44.4676493  13.6430113  60.6024913  44.9596493
  14.1710113  61.0514913  44.5936493  20.0570113  68.5394913  39.9226493
  19.4780113  68.2644913  40.5146493  20.6810113  67.9304913  39.9476493
  20.0640113  68.4094913  40.0136493  17.3360113  55.8024913  45.0336493
  16.8150113  55.1744913  44.7256493  17.9270113  55.3654913  45.5046493
  17.3470113  55.6444913  45.0576493  20.6420113  57.9354913  54.3316493
  20.7590113  57.4814913  53.5956493  20.9300113  58.7334913  54.1286493
  20.7020113  57.9864913  54.1926493  31.4950113  58.4594913  41.6356493
  31.1490113  59.1374913  42.0616493  30.8590113  57.8614913  41.6516493
  31.3500113  58.4714913  41.7006493  16.3750113  57.5324913  53.3156493
  15.5970113  57.1424913  53.2436493  16.8660113  57.1204913  52.7246493
  16.3320113  57.4134913  53.2176493  16.5800113  67.8524913  43.8736493
  17.0030113  67.4964913  43.1996493  16.9040113  67.4304913  44.5656493
  16.6900113  67.7374913  43.8766493  23.0240113  55.1754913  52.4836493
  23.2020113  54.3664913  52.2086493  22.8810113  55.6164913  51.7446493
  23.0290113  55.1214913  52.3336493  23.6180113  60.1014913  41.2566493
  23.9050113  59.8694913  40.4666493  24.3500113  60.1804913  41.7256493
  23.7680113  60.0784913  41.2096493  24.3400113  60.4404913  36.3776493
  24.6210113  61.2284913  36.6266493  23.5640113  60.6054913  36.0146493
  24.2670113  60.5814913  36.3606493  31.1700113  56.7824913  47.0046493
  31.9270113  56.8544913  46.5766493  31.2330113  56.0094913  47.4036493
  31.2910113  56.6794913  46.9996493  13.7230113  58.0804913  50.9016493
  13.7190113  58.6674913  51.5476493  14.3170113  58.3924913  50.3446493
  13.8100113  58.2134913  50.9146493  26.0610113  68.4144913  51.4436493
  26.0270113  68.7964913  52.2276493  26.9150113  68.3724913  51.2726493
  26.1820113  68.4644913  51.5346493  23.1990113  68.6114913  36.1936493
  23.0180113  69.1564913  36.8506493  23.9650113  68.9014913  35.8926493
  23.2850113  68.7354913  36.2466493  26.7060113  56.5074913  37.2476493
  27.2460113  55.8254913  37.3236493  26.7680113  56.9054913  38.0216493
  26.7950113  56.4654913  37.3736493  14.6600113  57.6754913  39.8166493
  14.5460113  56.8114913  39.8476493  14.1850113  57.9694913  40.4866493
  14.5730113  57.5914913  39.9196493  23.9640113  58.8834913  38.5616493
  23.4560113  58.2214913  38.3076493  24.0160113  59.3874913  37.8516493
  23.8970113  58.8604913  38.4196493  23.9640113  55.8244913  38.4526493
  23.5090113  55.4224913  37.8266493  24.7370113  55.9794913  38.0776493
  24.0110113  55.7884913  38.3046493  22.5620113  58.1914913  42.9746493
  22.6360113  58.7594913  42.3166493  22.6830113  58.6834913  43.6846493
  22.5900113  58.3484913  42.9826493  27.7870113  68.0264913  41.3866493
  28.4880113  67.5444913  41.5756493  27.1270113  67.4574913  41.4316493
  27.7930113  67.8714913  41.4206493  18.1630113  68.9364913  50.5986493
  19.0040113  68.9994913  50.3766493  18.1260113  69.3334913  51.3746493
  18.2820113  69.0044913  50.6806493  17.1700113  54.0144913  41.3226493
  17.7060113  54.7024913  41.3126493  17.1730113  53.7404913  40.4946493
  17.2490113  54.0754913  41.1986493  20.1260113  64.4474913  45.3476493
  20.2980113  64.2374913  46.1766493  19.4710113  63.9134913  45.1316493
  20.0550113  64.3374913  45.4386493  26.3540113  58.3614913  48.8626493
  26.2590113  58.6804913  49.6686493  25.7610113  57.7224913  48.8246493
  26.2520113  58.3134913  48.9766493  27.0530113  65.0804913  47.0676493
  26.5390113  64.6684913  47.6386493  26.9270113  65.9244913  47.2486493
  26.9590113  65.1444913  47.1786493  27.6100113  54.3054913  41.6986493
  27.6590113  53.9874913  42.5096493  27.9330113  53.6614913  41.2056493
  27.6650113  54.1634913  41.7456493  13.6970113  68.7564913  54.1486493
  14.4530113  69.1054913  54.4066493  13.8740113  67.9034913  54.0916493
  13.8350113  68.6814913  54.1786493  30.0740113  58.5414913  50.0066493
  30.8460113  58.3164913  50.3436493  29.5990113  58.7584913  50.7066493
  30.1180113  58.5404913  50.1596493  17.6180113  57.8244913  42.9766493
  17.8900113  57.3944913  42.2686493  17.4420113  57.1884913  43.5476493
  17.6320113  57.6674913  42.9566493  30.3060113  65.5194913  37.1946493
  30.4250113  65.2324913  38.0096493  31.1130113  65.5404913  36.8646493
  30.4420113  65.4804913  37.2666493  17.4420113  65.2514913  42.5256493
  18.2930113  65.1714913  42.3526493  17.0850113  64.5694913  42.1136493
  17.5150113  65.1384913  42.4386493  15.7590113  58.9264913  46.0586493
  16.6020113  59.1464913  46.0156493  15.3700113  59.4994913  45.5276493
  15.8260113  59.0434913  45.9736493  28.2010113  62.0564913  36.7796493
  27.9810113  62.7874913  36.3576493  27.7530113  62.1074913  37.5266493
  28.1020113  62.1714913  36.8276493  19.8100113  65.2584913  40.7606493
  20.5230113  65.7534913  40.8506493  20.0320113  64.6914913  40.1346493
  19.9480113  65.2474913  40.6816493  32.3880113  56.9174913  36.2326493
  31.7260113  56.3494913  36.2556493  32.1950113  57.4294913  35.5526493
  32.2620113  56.9094913  36.1356493  13.9660113  66.9014913  44.0806493
  13.2990113  67.3894913  44.3566493  14.6460113  67.4464913  44.1096493
  13.9680113  67.0534913  44.1256493  21.6130113  60.6114913  54.1766493
  21.1290113  61.1884913  54.6186493  21.5850113  60.9064913  53.3556493
  21.5370113  60.7404913  54.1206493  32.7110113  61.2954913  48.7886493
  32.9260113  60.4954913  48.5126493  31.8610113  61.3554913  48.5996493
  32.6170113  61.1864913  48.7196493  14.0320113  63.5854913  39.1836493
  13.8470113  62.7464913  39.3356493  14.6910113  63.5494913  38.6136493
  14.1020113  63.4564913  39.1216493  30.3900113  56.4754913  38.5116493
  31.1360113  56.0684913  38.7106493  30.6530113  57.1904913  38.0866493
  30.5390113  56.5214913  38.4786493  24.3330113  68.9614913  43.0876493
  23.8100113  69.5954913  42.7946493  24.6430113  68.5974913  42.3586493
  24.3010113  69.0014913  42.9366493  14.2040113  67.7494913  38.7586493
  14.7560113  68.3184913  39.1226493  13.9720113  67.2344913  39.4236493
  14.2510113  67.7574913  38.9106493  18.4080113  66.7494913  45.8476493
  18.8750113  67.0384913  46.5256493  18.9800113  66.2714913  45.3936493
  18.5620113  66.7214913  45.8806493  26.8440113  58.7634913  43.5846493
  27.1880113  58.9154913  44.3716493  26.3910113  58.0254913  43.6976493
  26.8280113  58.6764913  43.7176493  14.0340113  66.1984913  36.3866493
  14.7900113  65.7664913  36.4446493  14.0490113  66.7304913  37.0776493
  14.1480113  66.2134913  36.4976493  14.9740113  64.4194913  44.3916493
  15.4050113  64.2904913  43.6446493  14.7690113  65.2674913  44.3656493
  15.0070113  64.5254913  44.2776493  21.3200113  57.9834913  38.0416493
  21.3180113  57.8664913  37.1766493  21.1390113  58.8314913  38.1336493
  21.2930113  58.0914913  37.9276493  19.0580113  67.9354913  42.6736493
  19.1840113  68.7784913  42.8606493  19.7260113  67.5364913  43.0696493
  19.1760113  68.0014913  42.7596493  17.1880113  61.4184913  52.5356493
  16.6520113  60.9124913  53.0036493  17.2080113  61.0284913  51.7556493
  17.1110113  61.2854913  52.4896493  17.6730113  60.8154913  37.6756493
  17.5450113  60.3674913  38.4136493  17.0910113  60.4734913  37.1236493
  17.5680113  60.6984913  37.7036493  17.8400113  62.6454913  44.2746493
  17.0590113  62.5864913  43.8916493  17.9120113  61.8934913  44.7116493
  17.7350113  62.5264913  44.2826493  18.2700113  62.3824913  47.7426493
  18.2950113  61.7074913  47.1916493  17.6240113  62.8784913  47.4306493
  18.1790113  62.3554913  47.6156493  28.1650113  60.0954913  46.1386493
  27.5030113  60.4234913  46.6016493  28.3520113  60.7294913  45.5696493
  28.0950113  60.2374913  46.1226493  16.0690113  63.7374913  53.3016493
  16.0320113  64.2384913  52.5876493  16.4000113  62.9854913  53.0066493
  16.1120113  63.6994913  53.1526493  27.6720113  65.9424913  51.5596493
  28.1560113  66.6604913  51.6576493  28.0660113  65.5154913  50.9086493
  27.8020113  65.9854913  51.4776493  21.9680113  68.7874913  52.7366493
  22.3220113  68.6094913  53.5136493  21.5320113  68.0584913  52.5376493
  21.9560113  68.6534913  52.8226493  22.9400113  59.5344913  45.3746493
  23.4200113  60.2334913  45.5826493  23.3130113  58.8874913  45.8256493
  23.0660113  59.5424913  45.4716493  25.1290113  62.7034913  37.6486493
  25.1210113  63.4254913  37.1586493  24.4900113  62.8384913  38.2256493
  25.0340113  62.8304913  37.6616493  30.1010113  66.5734913  41.6296493
  30.4570113  66.2234913  42.3446493  30.0930113  65.9124913  41.0596493
  30.1530113  66.4234913  41.6506493  26.1590113  66.4904913  44.8736493
  25.3620113  66.7144913  45.1476493  26.4170113  65.8964913  45.4586493
  26.0790113  66.4354913  45.0006493  19.7220113  55.0454913  37.3096493
  19.8190113  54.9384913  38.1706493  19.0140113  55.5514913  37.2446493
  19.6320113  55.1044913  37.4276493  29.4190113  64.4884913  49.7196493
  29.4740113  64.6134913  48.8576493  30.1720113  64.8084913  50.0216493
  29.5380113  64.5534913  49.6366493  30.4510113  54.7864913  52.7066493
  29.8140113  54.3864913  52.2646493  30.4770113  54.3554913  53.4646493
  30.3610113  54.6644913  52.7526493  16.8440113  63.3524913  38.5526493
  17.1680113  62.5734913  38.3306493  17.4900113  63.7204913  39.0076493
  16.9870113  63.2914913  38.5866493  25.1500113  64.2944913  49.3196493
  24.9950113  64.9044913  49.9236493  25.6840113  63.7364913  49.7256493
  25.2060113  64.3024913  49.4686493  13.8410113  55.0134913  39.5206493
  13.9700113  54.3054913  39.0286493  13.4740113  54.6954913  40.2456493
  13.8060113  54.8614913  39.5556493  23.5340113  62.6944913  39.9776493
  23.5930113  63.3444913  40.5566493  23.3450113  61.9984913  40.4686493
  23.5150113  62.6874913  40.1356493  28.7600113  67.0234913  45.8466493
  28.2810113  67.3214913  45.1806493  28.4040113  66.2474913  46.0246493
  28.6370113  66.9524913  45.7746493  18.0300113  57.2114913  36.4896493
  17.5190113  57.2644913  35.7836493  18.8140113  57.4514913  36.1936493
  18.0700113  57.2544913  36.3416493  22.7570113  64.7414913  44.4086493
  21.9100113  64.5474913  44.4896493  23.0810113  64.5764913  45.2016493
  22.6790113  64.6884913  44.5376493  16.6050113  64.4344913  46.7246493
  17.3270113  64.9224913  46.6876493  16.3350113  64.4044913  45.8956493
  16.6720113  64.5024913  46.5966493  19.8350113  59.6054913  43.4596493
  20.6810113  59.4154913  43.5576493  19.4650113  58.8284913  43.3216493
  19.9050113  59.4624913  43.4536493  14.6560113  60.9434913  40.1146493
  15.1450113  60.6514913  40.7756493  14.7850113  60.3504913  39.4876493
  14.7470113  60.8124913  40.1196493  29.6910113  63.9654913  46.9656493
  29.6840113  63.1894913  47.3636493  28.8500113  64.1994913  46.9586493
  29.5660113  63.8854913  47.0236493  19.1810113  62.3774913  35.6006493
  18.5710113  61.9724913  36.0746493  18.7950113  62.4954913  34.8276493
  19.0340113  62.3344913  35.5566493  16.0000113  65.4864913  51.0026493
  15.5790113  64.9684913  50.4416493  15.6480113  66.2724913  50.8596493
  15.8860113  65.5264913  50.8986493  30.9470113  64.0364913  44.4026493
  30.6610113  64.4374913  45.1226493  31.8070113  63.9744913  44.5296493
  31.0320113  64.0864913  44.5276493  20.6360113  60.8384913  38.3106493
  20.9080113  61.6644913  38.3776493  19.7730113  60.9134913  38.2146493
  20.5490113  60.9714913  38.3056493  28.6090113  57.9604913  52.9426493
  28.0840113  58.4194913  53.4666493  28.2480113  57.1654913  52.9366493
  28.4780113  57.9104913  53.0186493  14.1160113  56.8084913  44.8466493
  14.1600113  57.1524913  44.0456493  14.8710113  57.0454913  45.2136493
  14.2340113  56.8944913  44.7826493  27.1010113  61.5294913  53.0186493
  27.1740113  61.6334913  53.8816493  26.4670113  62.0874913  52.7976493
  27.0180113  61.6274913  53.1136493  29.3690113  61.8484913  51.3836493
  29.6880113  62.6344913  51.5866493  28.9990113  61.5784913  52.1266493
  29.3620113  61.9244913  51.5236493  28.6830113  68.2724913  36.9136493
  29.0170113  67.4664913  36.9486493  27.9280113  68.2004913  37.3436493
  28.6210113  68.1424913  36.9826493  29.1650113  60.1064913  42.5726493
  28.4200113  59.7834913  42.8906493  29.1670113  60.9324913  42.8526493
  29.0550113  60.1804913  42.6606493  32.0670113  62.3904913  54.1186493
  32.0150113  62.0494913  53.3176493  32.8040113  62.8574913  54.0966493
  32.1680113  62.4094913  53.9966493  31.6050113  66.0664913  50.3246493
  32.2330113  65.5174913  50.0686493  31.5440113  66.6314913  49.6626493
  31.6890113  66.0694913  50.1886493  26.0570113  66.1474913  36.3166493
  26.7410113  65.6334913  36.1476493  25.6400113  66.1934913  35.5516493
  26.0960113  66.0784913  36.1786493  20.7390113  67.2974913  47.6206493
  20.4410113  67.8894913  48.1876493  20.7940113  67.7394913  46.8716493
  20.7030113  67.4504913  47.5936493  18.7180113  66.2474913  51.0186493
  17.9120113  65.9574913  51.1856493  18.6290113  67.1154913  51.0246493
  18.5860113  66.3324913  51.0436493  28.0770113  56.4364913  50.0336493
  28.8210113  56.8884913  49.9706493  27.5110113  56.9064913  49.5646493
  28.1040113  56.5734913  49.9556493  23.2550113  63.7204913  47.1116493
  23.7310113  64.0944913  47.7396493  22.4320113  63.8544913  47.3706493
  23.2040113  63.7954913  47.2426493  19.9650113  59.3234913  49.8526493
  20.1260113  58.5794913  50.2796493  19.9200113  59.0744913  49.0176493
  19.9820113  59.1764913  49.7926493  29.3620113  54.4164913  47.7036493
  29.0820113  55.2414913  47.6596493  30.0780113  54.4694913  48.1996493
  29.4270113  54.5464913  47.7706493  21.7170113  55.1314913  49.7326493
  22.4220113  55.4514913  49.3306493  21.9580113  54.3244913  49.9596493
  21.8560113  55.0594913  49.7066493  25.0110113  65.9754913  52.7176493
  25.7680113  66.2614913  52.3916493  24.4640113  66.0274913  52.0396493
  25.0420113  66.0254913  52.5686493  28.9200113  68.5254913  51.2216493
  29.2660113  68.7954913  51.9756493  29.2140113  69.1074913  50.6416493
  29.0150113  68.6514913  51.2476493  30.7830113  60.6714913  36.5606493
  31.1610113  61.3484913  36.1606493  29.9410113  60.8954913  36.5916493
  30.7140113  60.8044913  36.5056493  22.2960113  64.1174913  35.6436493
  21.4910113  63.9404913  35.3586493  22.2630113  64.9684913  35.8356493
  22.1720113  64.2164913  35.6306493  18.2260113  60.1844913  45.7936493
  18.6660113  60.0814913  45.0476493  18.7710113  59.8714913  46.3986493
  18.3710113  60.1234913  45.7726493  26.2420113  59.2864913  51.3856493
  25.5940113  59.7564913  51.7336493  26.8070113  59.1974913  52.0446493
  26.2300113  59.3424913  51.5346493  25.9300113  60.8234913  47.6836493
  26.2320113  61.2434913  48.3866493  25.9660113  59.9834913  47.9156493
  25.9800113  60.7614913  47.8216493  28.4780113  60.2704913  39.9356493
  28.6850113  60.0694913  40.7596493  29.2340113  60.5384913  39.5936493
  28.6200113  60.2804913  40.0066493  21.7730113  55.1694913  45.8406493
  20.9470113  55.0204913  46.0776493  21.7330113  55.2044913  44.9696493
  21.6450113  55.1524913  45.7466493  29.5000113  56.3534913  41.4096493
  28.7860113  55.8824913  41.5806493  29.3380113  56.6944913  40.6236493
  29.3710113  56.3344913  41.3186493  29.9430113  64.2974913  39.7896493
  30.4190113  63.5684913  39.7416493  29.1220113  64.0114913  39.7136493
  29.8920113  64.1474913  39.7706493  23.4140113  66.2094913  50.6286493
  22.6190113  66.1454913  50.9796493  23.4850113  67.0564913  50.4336493
  23.3070113  66.3244913  50.6516493  14.3380113  55.5674913  51.8756493
  14.1980113  56.3624913  51.5446493  13.5520113  55.3244913  52.1646493
  14.2010113  55.6494913  51.8696493  17.4020113  58.3114913  39.1006493
  17.5280113  57.9824913  38.3026493  16.5900113  58.0624913  39.2996493
  17.3010113  58.2264913  39.0126493  26.1590113  65.4644913  42.1446493
  26.2350113  65.8054913  42.9436493  26.3280113  64.6174913  42.2656493
  26.1950113  65.3894913  42.2806493  23.6810113  64.7384913  41.7096493
  23.3830113  64.4234913  42.4666493  24.3760113  65.2114913  41.9446493
  23.7400113  64.7614913  41.8566493  23.9030113  68.8564913  49.7366493
  24.5900113  68.7424913  50.2616493  24.0370113  69.6474913  49.3926493
  24.0240113  68.9564913  49.7636493  32.0790113  61.4654913  51.5476493
  31.2240113  61.3434913  51.6736493  32.2320113  61.0704913  50.7846493
  31.9750113  61.3884913  51.4536493  26.5920113  62.1304913  50.1236493
  26.3370113  61.4114913  50.5456493  27.4130113  62.2464913  50.3936493
  26.6760113  62.0414913  50.2256493  24.5260113  63.3204913  53.3106493
  24.8490113  64.0064913  52.8786493  23.8220113  63.6434913  53.7126493
  24.4690113  63.4694913  53.3056493  24.3110113  66.7844913  47.1696493
  23.6170113  67.1864913  47.5126493  24.9880113  67.2174913  47.5086493
  24.3080113  66.9074913  47.2706493  29.6880113  69.3774913  53.7496493
  30.4640113  68.9874913  53.8326493  29.2190113  69.0414913  54.4046493
  29.7330113  69.2704913  53.8586493  17.3790113  60.3224913  49.5166493
  17.7540113  60.9414913  49.0296493  18.0530113  59.8484913  49.8016493
  17.5340113  60.3444913  49.4866493  15.1540113  58.7704913  48.7916493
  15.2310113  58.6014913  47.9386493  15.9000113  59.1764913  48.9886493
  15.2750113  58.8054913  48.6946493  30.7130113  61.4104913  39.2316493
  30.8160113  61.3524913  38.3676493  31.4540113  61.0784913  39.5496493
  30.8380113  61.3534913  39.1506493  17.7080113  56.1804913  51.2026493
  17.6270113  55.3364913  51.4086493  17.3940113  56.2244913  50.3896493
  17.6500113  56.0624913  51.1126493  24.6330113  68.3754913  40.3386493
  24.4280113  69.2084913  40.1796493  23.8580113  67.9934913  40.4606493
  24.4880113  68.4424913  40.3336493  29.8150113  61.5564913  48.5876493
  29.8130113  60.6934913  48.7116493  29.8820113  61.8804913  49.3946493
  29.8250113  61.4764913  48.7246493  14.5510113  63.9964913  49.0156493
  14.8710113  64.2154913  48.2346493  14.4510113  63.1314913  48.9606493
  14.5830113  63.9014913  48.8926493  16.0070113  59.9324913  35.6336493
  15.3350113  59.9464913  36.1896493  16.1020113  59.0844913  35.4496493
  15.9220113  59.8094913  35.6886493  25.6940113  56.3564913  52.3696493
  25.7860113  57.0684913  52.8636493  25.0570113  55.9114913  52.7666493
  25.6130113  56.3954913  52.5016493  24.6880113  56.5464913  43.2236493
  23.9880113  57.0644913  43.1676493  24.7260113  56.1664913  42.4396493
  24.5900113  56.5674913  43.0996493  19.9950113  68.6374913  36.7476493
  20.4360113  68.7174913  37.4956493  19.1900113  68.4214913  37.0056493
  19.9410113  68.6174913  36.8966493  28.2860113  57.0624913  46.0236493
  29.1410113  57.1614913  46.1686493  27.9170113  57.6154913  46.5886493
  28.3580113  57.1594913  46.1286493  19.3140113  63.2884913  50.4006493
  18.9180113  64.0624913  50.4756493  18.9080113  62.9154913  49.7246493
  19.1960113  63.3474913  50.3116493  28.5900113  62.3424913  44.5146493
  29.2560113  62.8834913  44.6746493  28.2450113  62.6534913  43.7756493
  28.6370113  62.4684913  44.4296493  17.3240113  67.7074913  37.3486493
  17.0800113  67.4004913  38.1286493  17.2910113  67.0044913  36.8326493
  17.2830113  67.5584913  37.3876493  20.1430113  65.9524913  36.0916493
  19.3250113  65.6844913  36.2316493  20.1150113  66.8044913  36.2766493
  20.0180113  66.0394913  36.1396493  19.7430113  56.2654913  47.8506493
  18.8790113  56.3494913  47.9306493  19.9630113  55.7514913  48.5196493
  19.6480113  56.2024913  47.9616493  31.7610113  54.9004913  49.1796493
  31.7090113  54.8564913  50.0496493  32.4480113  54.3974913  48.9896493
  31.8550113  54.8204913  49.2796493  23.8460113  57.0134913  46.2246493
  23.1090113  56.5594913  46.3376493  24.4170113  56.6114913  46.7476493
  23.8210113  56.8864913  46.3186493  26.5780113  67.8614913  48.0126493
  26.7840113  68.1624913  48.8046493  26.5170113  68.5834913  47.5276493
  26.5990113  68.0124913  48.0576493  21.3490113  61.3424913  51.4286493
  21.0270113  60.7664913  50.8586493  20.9900113  62.0974913  51.1826493
  21.2490113  61.3684913  51.3086493  22.1450113  54.5944913  36.0556493
  22.2230113  54.8414913  35.2226493  21.4020113  54.9714913  36.3136493
  22.0470113  54.6864913  35.9706493  31.3900113  66.5004913  47.4706493
  31.3580113  65.6384913  47.3356493  30.6970113  66.8024913  47.0366493
  31.2830113  66.4174913  47.3866493  29.4950113  69.7604913  46.2676493
  30.0220113  69.6774913  45.5766493  29.1040113  68.9824913  46.3216493
  29.5150113  69.6334913  46.1736493  16.9630113  56.3484913  48.4986493
  16.6200113  55.5814913  48.2646493  16.2680113  56.8724913  48.5626493
  16.8100113  56.3124913  48.4736493  26.0090113  55.2044913  45.4756493
  26.6790113  55.7484913  45.6026493  25.5060113  55.6284913  44.9026493
  26.0340113  55.3474913  45.4096493  25.3680113  61.0124913  42.9686493
  25.9190113  60.4054913  43.2686493  24.9430113  61.2754913  43.6836493
  25.3870113  60.9614913  43.1176493  15.6160113  59.6624913  42.4546493
  15.2480113  59.9644913  43.1856493  16.1500113  59.0334913  42.7386493
  15.6400113  59.6144913  42.6046493  15.3040113  68.0704913  49.9656493
  14.7300113  68.4864913  50.4746493  16.0370113  68.5354913  50.0606493
  15.3280113  68.2004913  50.0546493  27.3380113  62.8434913  39.5306493
  27.4060113  61.9934913  39.7116493  26.5150113  62.9294913  39.2526493
  27.2260113  62.7304913  39.5166493  21.2570113  63.7344913  38.4686493
  21.3570113  63.8734913  37.6136493  22.0750113  63.6744913  38.7646493
  21.3920113  63.7454913  38.3856493  30.6120113  64.2164913  52.6816493
  31.2460113  64.0464913  53.2556493  31.0290113  64.6194913  52.0296493
  30.7670113  64.2514913  52.6706493  26.4920113  68.0634913  38.2706493
  26.2410113  67.9354913  39.0966493  26.1750113  67.3684913  37.8496493
  26.4080113  67.9424913  38.3306493  31.2370113  58.7804913  53.4196493
  31.0410113  59.4244913  53.9746493  30.5150113  58.2904913  53.4116493
  31.1020113  58.8034913  53.5006493  31.1360113  59.7214913  46.3906493
  30.3030113  59.9714913  46.3186493  31.0800113  58.8814913  46.6196493
  31.0050113  59.6344913  46.4136493  20.3960113  56.7094913  51.5846493
  20.6300113  56.1334913  50.9716493  19.5540113  56.5284913  51.7256493
  20.3060113  56.5974913  51.5146493  28.0230113  64.3274913  54.0366493
  28.8940113  64.2914913  54.0006493  27.8040113  64.7474913  53.3046493
  28.1200113  64.3834913  53.9236493  23.3780113  66.2714913  37.7006493
  24.0950113  65.9244913  37.3446493  23.3440113  67.0714913  37.3526493
  23.4790113  66.3384913  37.5966493  24.7870113  54.9124913  21.9394083
  24.5420113  55.4004913  21.2594083  25.6500113  54.8394913  21.8394083
  24.8780113  54.9734913  21.8244083  24.5960113  61.8284913  26.6104083
  24.0720113  62.4244913  26.9734083  24.9930113  61.4604913  27.2944083
  24.5770113  61.8624913  26.7654083  14.4650113  65.9684913  22.0664083
  14.0240113  66.0864913  22.8094083  14.1820113  65.1934913  21.7814083
  14.3580113  65.8714913  22.1344083  30.7400113  69.2694913  19.5814083
  31.4410113  68.7504913  19.5774083  30.1530113  68.8244913  19.1124083
  30.7570113  69.1264913  19.5114083  14.2080113  59.7604913  18.5734083
  13.4300113  59.9224913  18.2134083  14.2470113  58.8894913  18.5954083
  14.0990113  59.6554913  18.5234083  17.3470113  65.0234913  17.2454083
  16.9550113  64.6524913  16.5594083  17.2670113  64.4254913  17.8744083
  17.2770113  64.8804913  17.2364083  27.2670113  62.8954913  23.2864083
  27.3470113  62.8994913  22.4174083  26.6830113  62.2634913  23.4354083
  27.1920113  62.8024913  23.1804083  16.9740113  66.6644913  21.1454083
  17.5820113  66.4944913  21.7484083  16.2230113  66.5244913  21.5664083
  16.9530113  66.6184913  21.2964083  21.2560113  55.9994913  21.0944083
  21.1860113  56.6764913  20.5484083  21.9970113  55.6114913  20.8454083
  21.3550113  56.0424913  20.9764083  14.4050113  68.7034913  28.3214083
  14.5340113  68.4234913  29.1374083  13.7950113  68.1624913  28.0124083
  14.3340113  68.5824913  28.3964083  20.9790113  66.2284913  33.3884083
  20.7430113  66.2254913  34.2284083  20.2310113  66.0804913  32.9644083
  20.8330113  66.2054913  33.4494083  15.8510113  63.2244913  22.5234083
  15.3890113  62.8324913  21.8964083  16.5510113  62.7114913  22.6154083
  15.8860113  63.0914913  22.4444083  20.3590113  58.8344913  27.8704083
  21.0370113  58.8524913  27.3214083  20.3140113  57.9984913  28.1154083
  20.4520113  58.7134913  27.8254083  17.8520113  61.3244913  22.5464083
  18.6690113  61.1374913  22.7894083  17.3750113  60.7104913  22.9424083
  17.9020113  61.2064913  22.6414083  22.0560113  67.3054913  25.1564083
  22.4040113  66.5064913  25.1864083  22.7210113  67.8094913  24.9014083
  22.2060113  67.2614913  25.1234083  22.1130113  66.7544913  21.3674083
  22.4440113  66.1104913  21.8534083  22.3530113  66.5434913  20.5564083
  22.1970113  66.6284913  21.3194083  24.0810113  60.8854913  32.7064083
  23.2330113  60.7864913  32.5284083  24.1100113  61.6304913  33.1604083
  23.9600113  60.9814913  32.7474083  18.4490113  56.4184913  21.8124083
  18.1530113  56.9194913  21.1624083  19.3160113  56.4964913  21.7554083
  18.5330113  56.5044913  21.7084083  28.6390113  53.8454913  31.8204083
  28.4810113  54.6144913  31.4384083  27.8670113  53.6254913  32.1644083
  28.5010113  53.9264913  31.8154083  21.4280113  55.5604913  24.0354083
  21.5010113  56.4204913  24.1644083  21.3900113  55.4854913  23.1674083
  21.4330113  55.6764913  23.9264083  26.1010113  58.4864913  16.3344083
  25.6510113  59.1674913  16.6414083  26.2150113  57.9824913  17.0374083
  26.0520113  58.5124913  16.4834083  14.3070113  60.9854913  25.5364083
  14.0510113  61.8164913  25.4614083  13.6430113  60.6024913  25.9534083
  14.1710113  61.0514913  25.5874083  20.0570113  68.5394913  20.9164083
  19.4780113  68.2644913  21.5084083  20.6810113  67.9304913  20.9414083
  20.0640113  68.4094913  21.0074083  17.3360113  55.8024913  26.0274083
  16.8150113  55.1744913  25.7194083  17.9270113  55.3654913  26.4984083
  17.3470113  55.6444913  26.0514083  20.6420113  57.9354913  35.3254083
  20.7590113  57.4814913  34.5894083  20.9300113  58.7334913  35.1224083
  20.7020113  57.9864913  35.1864083  31.4950113  58.4594913  22.6294083
  31.1490113  59.1374913  23.0554083  30.8590113  57.8614913  22.6454083
  31.3500113  58.4714913  22.6944083  16.3750113  57.5324913  34.3094083
  15.5970113  57.1424913  34.2374083  16.8660113  57.1204913  33.7184083
  16.3320113  57.4134913  34.2114083  16.5800113  67.8524913  24.8674083
  17.0030113  67.4964913  24.1934083  16.9040113  67.4304913  25.5594083
  16.6900113  67.7374913  24.8704083  23.0240113  55.1754913  33.4774083
  23.2020113  54.3664913  33.2024083  22.8810113  55.6164913  32.7384083
  23.0290113  55.1214913  33.3274083  23.6180113  60.1014913  22.2504083
  23.9050113  59.8694913  21.4604083  24.3500113  60.1804913  22.7194083
  23.7680113  60.0784913  22.2034083  24.3400113  60.4404913  17.3714083
  24.6210113  61.2284913  17.6204083  23.5640113  60.6054913  17.0084083
  24.2670113  60.5814913  17.3544083  31.1700113  56.7824913  27.9984083
  31.9270113  56.8544913  27.5704083  31.2330113  56.0094913  28.3974083
  31.2910113  56.6794913  27.9934083  13.7230113  58.0804913  31.8954083
  13.7190113  58.6674913  32.5414083  14.3170113  58.3924913  31.3384083
  13.8100113  58.2134913  31.9084083  26.0610113  68.4144913  32.4374083
  26.0270113  68.7964913  33.2214083  26.9150113  68.3724913  32.2664083
  26.1820113  68.4644913  32.5284083  23.1990113  68.6114913  17.1874083
  23.0180113  69.1564913  17.8444083  23.9650113  68.9014913  16.8864083
  23.2850113  68.7354913  17.2404083  26.7060113  56.5074913  18.2414083
  27.2460113  55.8254913  18.3174083  26.7680113  56.9054913  19.0154083
  26.7950113  56.4654913  18.3674083  14.6600113  57.6754913  20.8104083
  14.5460113  56.8114913  20.8414083  14.1850113  57.9694913  21.4804083
  14.5730113  57.5914913  20.9134083  23.9640113  58.8834913  19.5554083
  23.4560113  58.2214913  19.3014083  24.0160113  59.3874913  18.8454083
  23.8970113  58.8604913  19.4134083  23.9640113  55.8244913  19.4464083
  23.5090113  55.4224913  18.8204083  24.7370113  55.9794913  19.0714083
  24.0110113  55.7884913  19.2984083  22.5620113  58.1914913  23.9684083
  22.6360113  58.7594913  23.3104083  22.6830113  58.6834913  24.6784083
  22.5900113  58.3484913  23.9764083  27.7870113  68.0264913  22.3804083
  28.4880113  67.5444913  22.5694083  27.1270113  67.4574913  22.4254083
  27.7930113  67.8714913  22.4144083  18.1630113  68.9364913  31.5924083
  19.0040113  68.9994913  31.3704083  18.1260113  69.3334913  32.3684083
  18.2820113  69.0044913  31.6744083  17.1700113  54.0144913  22.3164083
  17.7060113  54.7024913  22.3064083  17.1730113  53.7404913  21.4884083
  17.2490113  54.0754913  22.1924083  20.1260113  64.4474913  26.3414083
  20.2980113  64.2374913  27.1704083  19.4710113  63.9134913  26.1254083
  20.0550113  64.3374913  26.4324083  26.3540113  58.3614913  29.8564083
  26.2590113  58.6804913  30.6624083  25.7610113  57.7224913  29.8184083
  26.2520113  58.3134913  29.9704083  20.8760113  64.3854913  28.9314083
  20.9290113  65.2324913  29.1334083  20.5910113  64.0154913  29.6684083
  20.8420113  64.4554913  29.0694083  27.0530113  65.0804913  28.0614083
  26.5390113  64.6684913  28.6324083  26.9270113  65.9244913  28.2424083
  26.9590113  65.1444913  28.1724083  27.6100113  54.3054913  22.6924083
  27.6590113  53.9874913  23.5034083  27.9330113  53.6614913  22.1994083
  27.6650113  54.1634913  22.7394083  13.6970113  68.7564913  35.1424083
  14.4530113  69.1054913  35.4004083  13.8740113  67.9034913  35.0854083
  13.8350113  68.6814913  35.1724083  30.0740113  58.5414913  31.0004083
  30.8460113  58.3164913  31.3374083  29.5990113  58.7584913  31.7004083
  30.1180113  58.5404913  31.1534083  17.6180113  57.8244913  23.9704083
  17.8900113  57.3944913  23.2624083  17.4420113  57.1884913  24.5414083
  17.6320113  57.6674913  23.9504083  30.3060113  65.5194913  18.1884083
  30.4250113  65.2324913  19.0034083  31.1130113  65.5404913  17.8584083
  30.4420113  65.4804913  18.2604083  17.4420113  65.2514913  23.5194083
  18.2930113  65.1714913  23.3464083  17.0850113  64.5694913  23.1074083
  17.5150113  65.1384913  23.4324083  15.7590113  58.9264913  27.0524083
  16.6020113  59.1464913  27.0094083  15.3700113  59.4994913  26.5214083
  15.8260113  59.0434913  26.9674083  28.2010113  62.0564913  17.7734083
  27.9810113  62.7874913  17.3514083  27.7530113  62.1074913  18.5204083
  28.1020113  62.1714913  17.8214083  19.8100113  65.2584913  21.7544083
  20.5230113  65.7534913  21.8444083  20.0320113  64.6914913  21.1284083
  19.9480113  65.2474913  21.6754083  32.3880113  56.9174913  17.2264083
  31.7260113  56.3494913  17.2494083  32.1950113  57.4294913  16.5464083
  32.2620113  56.9094913  17.1294083  13.9660113  66.9014913  25.0744083
  13.2990113  67.3894913  25.3504083  14.6460113  67.4464913  25.1034083
  13.9680113  67.0534913  25.1194083  21.6130113  60.6114913  35.1704083
  21.1290113  61.1884913  35.6124083  21.5850113  60.9064913  34.3494083
  21.5370113  60.7404913  35.1144083  32.7110113  61.2954913  29.7824083
  32.9260113  60.4954913  29.5064083  31.8610113  61.3554913  29.5934083
  32.6170113  61.1864913  29.7134083  14.0320113  63.5854913  20.1774083
  13.8470113  62.7464913  20.3294083  14.6910113  63.5494913  19.6074083
  14.1020113  63.4564913  20.1154083  30.3900113  56.4754913  19.5054083
  31.1360113  56.0684913  19.7044083  30.6530113  57.1904913  19.0804083
  30.5390113  56.5214913  19.4724083  24.3330113  68.9614913  24.0814083
  23.8100113  69.5954913  23.7884083  24.6430113  68.5974913  23.3524083
  24.3010113  69.0014913  23.9304083  14.2040113  67.7494913  19.7524083
  14.7560113  68.3184913  20.1164083  13.9720113  67.2344913  20.4174083
  14.2510113  67.7574913  19.9044083  18.4080113  66.7494913  26.8414083
  18.8750113  67.0384913  27.5194083  18.9800113  66.2714913  26.3874083
  18.5620113  66.7214913  26.8744083  26.8440113  58.7634913  24.5784083
  27.1880113  58.9154913  25.3654083  26.3910113  58.0254913  24.6914083
  26.8280113  58.6764913  24.7114083  14.0340113  66.1984913  17.3804083
  14.7900113  65.7664913  17.4384083  14.0490113  66.7304913  18.0714083
  14.1480113  66.2134913  17.4914083  14.9740113  64.4194913  25.3854083
  15.4050113  64.2904913  24.6384083  14.7690113  65.2674913  25.3594083
  15.0070113  64.5254913  25.2714083  21.3200113  57.9834913  19.0354083
  21.3180113  57.8664913  18.1704083  21.1390113  58.8314913  19.1274083
  21.2930113  58.0914913  18.9214083  19.0580113  67.9354913  23.6674083
  19.1840113  68.7784913  23.8544083  19.7260113  67.5364913  24.0634083
  19.1760113  68.0014913  23.7534083  17.1880113  61.4184913  33.5294083
  16.6520113  60.9124913  33.9974083  17.2080113  61.0284913  32.7494083
  17.1110113  61.2854913  33.4834083  17.6730113  60.8154913  18.6694083
  17.5450113  60.3674913  19.4074083  17.0910113  60.4734913  18.1174083
  17.5680113  60.6984913  18.6974083  17.8400113  62.6454913  25.2684083
  17.0590113  62.5864913  24.8854083  17.9120113  61.8934913  25.7054083
  17.7350113  62.5264913  25.2764083  18.2700113  62.3824913  28.7364083
  18.2950113  61.7074913  28.1854083  17.6240113  62.8784913  28.4244083
  18.1790113  62.3554913  28.6094083  28.1650113  60.0954913  27.1324083
  27.5030113  60.4234913  27.5954083  28.3520113  60.7294913  26.5634083
  28.0950113  60.2374913  27.1164083  24.8100113  56.0014913  30.5614083
  24.9590113  55.1764913  30.3184083  25.1890113  56.0564913  31.3454083
  24.8880113  55.8874913  30.6414083  26.3580113  58.0644913  20.6434083
  26.8480113  58.7814913  20.5664083  25.5680113  58.3254913  20.3804083
  26.3140113  58.2084913  20.5934083  16.0690113  63.7374913  34.2954083
  16.0320113  64.2384913  33.5814083  16.4000113  62.9854913  34.0004083
  16.1120113  63.6994913  34.1464083  27.6720113  65.9424913  32.5534083
  28.1560113  66.6604913  32.6514083  28.0660113  65.5154913  31.9024083
  27.8020113  65.9854913  32.4714083  21.9680113  68.7874913  33.7304083
  22.3220113  68.6094913  34.5074083  21.5320113  68.0584913  33.5314083
  21.9560113  68.6534913  33.8164083  22.9400113  59.5344913  26.3684083
  23.4200113  60.2334913  26.5764083  23.3130113  58.8874913  26.8194083
  23.0660113  59.5424913  26.4654083  25.1290113  62.7034913  18.6424083
  25.1210113  63.4254913  18.1524083  24.4900113  62.8384913  19.2194083
  25.0340113  62.8304913  18.6554083  30.1010113  66.5734913  22.6234083
  30.4570113  66.2234913  23.3384083  30.0930113  65.9124913  22.0534083
  30.1530113  66.4234913  22.6444083  26.1590113  66.4904913  25.8674083
  25.3620113  66.7144913  26.1414083  26.4170113  65.8964913  26.4524083
  26.0790113  66.4354913  25.9944083  19.7220113  55.0454913  18.3034083
  19.8190113  54.9384913  19.1644083  19.0140113  55.5514913  18.2384083
  19.6320113  55.1044913  18.4214083  29.4190113  64.4884913  30.7134083
  29.4740113  64.6134913  29.8514083  30.1720113  64.8084913  31.0154083
  29.5380113  64.5534913  30.6304083  30.4510113  54.7864913  33.7004083
  29.8140113  54.3864913  33.2584083  30.4770113  54.3554913  34.4584083
  30.3610113  54.6644913  33.7464083  16.8440113  63.3524913  19.5464083
  17.1680113  62.5734913  19.3244083  17.4900113  63.7204913  20.0014083
  16.9870113  63.2914913  19.5804083  25.1500113  64.2944913  30.3134083
  24.9950113  64.9044913  30.9174083  25.6840113  63.7364913  30.7194083
  25.2060113  64.3024913  30.4624083  13.8410113  55.0134913  20.5144083
  13.9700113  54.3054913  20.0224083  13.4740113  54.6954913  21.2394083
  13.8060113  54.8614913  20.5494083  23.5340113  62.6944913  20.9714083
  23.5930113  63.3444913  21.5504083  23.3450113  61.9984913  21.4624083
  23.5150113  62.6874913  21.1294083  28.7600113  67.0234913  26.8404083
  28.2810113  67.3214913  26.1744083  28.4040113  66.2474913  27.0184083
  28.6370113  66.9524913  26.7684083  18.0300113  57.2114913  17.4834083
  17.5190113  57.2644913  16.7774083  18.8140113  57.4514913  17.1874083
  18.0700113  57.2544913  17.3354083  22.7570113  64.7414913  25.4024083
  21.9100113  64.5474913  25.4834083  23.0810113  64.5764913  26.1954083
  22.6790113  64.6884913  25.5314083  16.6050113  64.4344913  27.7184083
  17.3270113  64.9224913  27.6814083  16.3350113  64.4044913  26.8894083
  16.6720113  64.5024913  27.5904083  19.8350113  59.6054913  24.4534083
  20.6810113  59.4154913  24.5514083  19.4650113  58.8284913  24.3154083
  19.9050113  59.4624913  24.4474083  14.6560113  60.9434913  21.1084083
  15.1450113  60.6514913  21.7694083  14.7850113  60.3504913  20.4814083
  14.7470113  60.8124913  21.1134083  29.6910113  63.9654913  27.9594083
  29.6840113  63.1894913  28.3574083  28.8500113  64.1994913  27.9524083
  29.5660113  63.8854913  28.0174083  19.1810113  62.3774913  16.5944083
  18.5710113  61.9724913  17.0684083  18.7950113  62.4954913  15.8214083
  19.0340113  62.3344913  16.5504083  16.0000113  65.4864913  31.9964083
  15.5790113  64.9684913  31.4354083  15.6480113  66.2724913  31.8534083
  15.8860113  65.5264913  31.8924083  30.9470113  64.0364913  25.3964083
  30.6610113  64.4374913  26.1164083  31.8070113  63.9744913  25.5234083
  31.0320113  64.0864913  25.5214083  20.6360113  60.8384913  19.3044083
  20.9080113  61.6644913  19.3714083  19.7730113  60.9134913  19.2084083
  20.5490113  60.9714913  19.2994083  28.6090113  57.9604913  33.9364083
  28.0840113  58.4194913  34.4604083  28.2480113  57.1654913  33.9304083
  28.4780113  57.9104913  34.0124083  14.1160113  56.8084913  25.8404083
  14.1600113  57.1524913  25.0394083  14.8710113  57.0454913  26.2074083
  14.2340113  56.8944913  25.7764083  27.1010113  61.5294913  34.0124083
  27.1740113  61.6334913  34.8754083  26.4670113  62.0874913  33.7914083
  27.0180113  61.6274913  34.1074083  29.3690113  61.8484913  32.3774083
  29.6880113  62.6344913  32.5804083  28.9990113  61.5784913  33.1204083
  29.3620113  61.9244913  32.5174083  28.6830113  68.2724913  17.9074083
  29.0170113  67.4664913  17.9424083  27.9280113  68.2004913  18.3374083
  28.6210113  68.1424913  17.9764083  29.1650113  60.1064913  23.5664083
  28.4200113  59.7834913  23.8844083  29.1670113  60.9324913  23.8464083
  29.0550113  60.1804913  23.6544083  32.0670113  62.3904913  35.1124083
  32.0150113  62.0494913  34.3114083  32.8040113  62.8574913  35.0904083
  32.1680113  62.4094913  34.9904083  31.6050113  66.0664913  31.3184083
  32.2330113  65.5174913  31.0624083  31.5440113  66.6314913  30.6564083
  31.6890113  66.0694913  31.1824083  26.0570113  66.1474913  17.3104083
  26.7410113  65.6334913  17.1414083  25.6400113  66.1934913  16.5454083
  26.0960113  66.0784913  17.1724083  20.7390113  67.2974913  28.6144083
  20.4410113  67.8894913  29.1814083  20.7940113  67.7394913  27.8654083
  20.7030113  67.4504913  28.5874083  18.7180113  66.2474913  32.0124083
  17.9120113  65.9574913  32.1794083  18.6290113  67.1154913  32.0184083
  18.5860113  66.3324913  32.0374083  28.0770113  56.4364913  31.0274083
  28.8210113  56.8884913  30.9644083  27.5110113  56.9064913  30.5584083
  28.1040113  56.5734913  30.9494083  23.2550113  63.7204913  28.1054083
  23.7310113  64.0944913  28.7334083  22.4320113  63.8544913  28.3644083
  23.2040113  63.7954913  28.2364083  19.9650113  59.3234913  30.8464083
  20.1260113  58.5794913  31.2734083  19.9200113  59.0744913  30.0114083
  19.9820113  59.1764913  30.7864083  29.3620113  54.4164913  28.6974083
  29.0820113  55.2414913  28.6534083  30.0780113  54.4694913  29.1934083
  29.4270113  54.5464913  28.7644083  21.7170113  55.1314913  30.7264083
  22.4220113  55.4514913  30.3244083  21.9580113  54.3244913  30.9534083
  21.8560113  55.0594913  30.7004083  25.0110113  65.9754913  33.7114083
  25.7680113  66.2614913  33.3854083  24.4640113  66.0274913  33.0334083
  25.0420113  66.0254913  33.5624083  28.9200113  68.5254913  32.2154083
  29.2660113  68.7954913  32.9694083  29.2140113  69.1074913  31.6354083
  29.0150113  68.6514913  32.2414083  30.7830113  60.6714913  17.5544083
  31.1610113  61.3484913  17.1544083  29.9410113  60.8954913  17.5854083
  30.7140113  60.8044913  17.4994083  22.2960113  64.1174913  16.6374083
  21.4910113  63.9404913  16.3524083  22.2630113  64.9684913  16.8294083
  22.1720113  64.2164913  16.6244083  18.2260113  60.1844913  26.7874083
  18.6660113  60.0814913  26.0414083  18.7710113  59.8714913  27.3924083
  18.3710113  60.1234913  26.7664083  26.2420113  59.2864913  32.3794083
  25.5940113  59.7564913  32.7274083  26.8070113  59.1974913  33.0384083
  26.2300113  59.3424913  32.5284083  25.9300113  60.8234913  28.6774083
  26.2320113  61.2434913  29.3804083  25.9660113  59.9834913  28.9094083
  25.9800113  60.7614913  28.8154083  28.4780113  60.2704913  20.9294083
  28.6850113  60.0694913  21.7534083  29.2340113  60.5384913  20.5874083
  28.6200113  60.2804913  21.0004083  21.7730113  55.1694913  26.8344083
  20.9470113  55.0204913  27.0714083  21.7330113  55.2044913  25.9634083
  21.6450113  55.1524913  26.7404083  29.5000113  56.3534913  22.4034083
  28.7860113  55.8824913  22.5744083  29.3380113  56.6944913  21.6174083
  29.3710113  56.3344913  22.3124083  29.9430113  64.2974913  20.7834083
  30.4190113  63.5684913  20.7354083  29.1220113  64.0114913  20.7074083
  29.8920113  64.1474913  20.7644083  23.4140113  66.2094913  31.6224083
  22.6190113  66.1454913  31.9734083  23.4850113  67.0564913  31.4274083
  23.3070113  66.3244913  31.6454083  14.3380113  55.5674913  32.8694083
  14.1980113  56.3624913  32.5384083  13.5520113  55.3244913  33.1584083
  14.2010113  55.6494913  32.8634083  17.4020113  58.3114913  20.0944083
  17.5280113  57.9824913  19.2964083  16.5900113  58.0624913  20.2934083
  17.3010113  58.2264913  20.0064083  26.1590113  65.4644913  23.1384083
  26.2350113  65.8054913  23.9374083  26.3280113  64.6174913  23.2594083
  26.1950113  65.3894913  23.2744083  23.6810113  64.7384913  22.7034083
  23.3830113  64.4234913  23.4604083  24.3760113  65.2114913  22.9384083
  23.7400113  64.7614913  22.8504083  23.9030113  68.8564913  30.7304083
  24.5900113  68.7424913  31.2554083  24.0370113  69.6474913  30.3864083
  24.0240113  68.9564913  30.7574083  32.0790113  61.4654913  32.5414083
  31.2240113  61.3434913  32.6674083  32.2320113  61.0704913  31.7784083
  31.9750113  61.3884913  32.4474083  26.5920113  62.1304913  31.1174083
  26.3370113  61.4114913  31.5394083  27.4130113  62.2464913  31.3874083
  26.6760113  62.0414913  31.2194083  24.5260113  63.3204913  34.3044083
  24.8490113  64.0064913  33.8724083  23.8220113  63.6434913  34.7064083
  24.4690113  63.4694913  34.2994083  24.3110113  66.7844913  28.1634083
  23.6170113  67.1864913  28.5064083  24.9880113  67.2174913  28.5024083
  24.3080113  66.9074913  28.2644083  29.6880113  69.3774913  34.7434083
  30.4640113  68.9874913  34.8264083  29.2190113  69.0414913  35.3984083
  29.7330113  69.2704913  34.8524083  17.3790113  60.3224913  30.5104083
  17.7540113  60.9414913  30.0234083  18.0530113  59.8484913  30.7954083
  17.5340113  60.3444913  30.4804083  15.1540113  58.7704913  29.7854083
  15.2310113  58.6014913  28.9324083  15.9000113  59.1764913  29.9824083
  15.2750113  58.8054913  29.6884083  30.7130113  61.4104913  20.2254083
  30.8160113  61.3524913  19.3614083  31.4540113  61.0784913  20.5434083
  30.8380113  61.3534913  20.1444083  17.7080113  56.1804913  32.1964083
  17.6270113  55.3364913  32.4024083  17.3940113  56.2244913  31.3834083
  17.6500113  56.0624913  32.1064083  24.6330113  68.3754913  21.3324083
  24.4280113  69.2084913  21.1734083  23.8580113  67.9934913  21.4544083
  24.4880113  68.4424913  21.3274083  29.8150113  61.5564913  29.5814083
  29.8130113  60.6934913  29.7054083  29.8820113  61.8804913  30.3884083
  29.8250113  61.4764913  29.7184083  14.5510113  63.9964913  30.0094083
  14.8710113  64.2154913  29.2284083  14.4510113  63.1314913  29.9544083
  14.5830113  63.9014913  29.8864083  16.0070113  59.9324913  16.6274083
  15.3350113  59.9464913  17.1834083  16.1020113  59.0844913  16.4434083
  15.9220113  59.8094913  16.6824083  25.6940113  56.3564913  33.3634083
  25.7860113  57.0684913  33.8574083  25.0570113  55.9114913  33.7604083
  25.6130113  56.3954913  33.4954083  24.6880113  56.5464913  24.2174083
  23.9880113  57.0644913  24.1614083  24.7260113  56.1664913  23.4334083
  24.5900113  56.5674913  24.0934083  19.9950113  68.6374913  17.7414083
  20.4360113  68.7174913  18.4894083  19.1900113  68.4214913  17.9994083
  19.9410113  68.6174913  17.8904083  28.2860113  57.0624913  27.0174083
  29.1410113  57.1614913  27.1624083  27.9170113  57.6154913  27.5824083
  28.3580113  57.1594913  27.1224083  19.3140113  63.2884913  31.3944083
  18.9180113  64.0624913  31.4694083  18.9080113  62.9154913  30.7184083
  19.1960113  63.3474913  31.3054083  28.5900113  62.3424913  25.5084083
  29.2560113  62.8834913  25.6684083  28.2450113  62.6534913  24.7694083
  28.6370113  62.4684913  25.4234083  17.3240113  67.7074913  18.3424083
  17.0800113  67.4004913  19.1224083  17.2910113  67.0044913  17.8264083
  17.2830113  67.5584913  18.3814083  20.1430113  65.9524913  17.0854083
  19.3250113  65.6844913  17.2254083  20.1150113  66.8044913  17.2704083
  20.0180113  66.0394913  17.1334083  19.7430113  56.2654913  28.8444083
  18.8790113  56.3494913  28.9244083  19.9630113  55.7514913  29.5134083
  19.6480113  56.2024913  28.9554083  31.7610113  54.9004913  30.1734083
  31.7090113  54.8564913  31.0434083  32.4480113  54.3974913  29.9834083
  31.8550113  54.8204913  30.2734083  23.8460113  57.0134913  27.2184083
  23.1090113  56.5594913  27.3314083  24.4170113  56.6114913  27.7414083
  23.8210113  56.8864913  27.3124083  26.5780113  67.8614913  29.0064083
  26.7840113  68.1624913  29.7984083  26.5170113  68.5834913  28.5214083
  26.5990113  68.0124913  29.0514083  21.3490113  61.3424913  32.4224083
  21.0270113  60.7664913  31.8524083  20.9900113  62.0974913  32.1764083
  21.2490113  61.3684913  32.3024083  22.1450113  54.5944913  17.0494083
  22.2230113  54.8414913  16.2164083  21.4020113  54.9714913  17.3074083
  22.0470113  54.6864913  16.9644083  31.3900113  66.5004913  28.4644083
  31.3580113  65.6384913  28.3294083  30.6970113  66.8024913  28.0304083
  31.2830113  66.4174913  28.3804083  29.4950113  69.7604913  27.2614083
  30.0220113  69.6774913  26.5704083  29.1040113  68.9824913  27.3154083
  29.5150113  69.6334913  27.1674083  16.9630113  56.3484913  29.4924083
  16.6200113  55.5814913  29.2584083  16.2680113  56.8724913  29.5564083
  16.8100113  56.3124913  29.4674083  26.0090113  55.2044913  26.4694083
  26.6790113  55.7484913  26.5964083  25.5060113  55.6284913  25.8964083
  26.0340113  55.3474913  26.4034083  25.3680113  61.0124913  23.9624083
  25.9190113  60.4054913  24.2624083  24.9430113  61.2754913  24.6774083
  25.3870113  60.9614913  24.1114083  15.6160113  59.6624913  23.4484083
  15.2480113  59.9644913  24.1794083  16.1500113  59.0334913  23.7324083
  15.6400113  59.6144913  23.5984083  15.3040113  68.0704913  30.9594083
  14.7300113  68.4864913  31.4684083  16.0370113  68.5354913  31.0544083
  15.3280113  68.2004913  31.0484083  27.3380113  62.8434913  20.5244083
  27.4060113  61.9934913  20.7054083  26.5150113  62.9294913  20.2464083
  27.2260113  62.7304913  20.5104083  21.2570113  63.7344913  19.4624083
  21.3570113  63.8734913  18.6074083  22.0750113  63.6744913  19.7584083
  21.3920113  63.7454913  19.3794083  30.6120113  64.2164913  33.6754083
  31.2460113  64.0464913  34.2494083  31.0290113  64.6194913  33.0234083
  30.7670113  64.2514913  33.6644083  26.4920113  68.0634913  19.2644083
  26.2410113  67.9354913  20.0904083  26.1750113  67.3684913  18.8434083
  26.4080113  67.9424913  19.3244083  31.2370113  58.7804913  34.4134083
  31.0410113  59.4244913  34.9684083  30.5150113  58.2904913  34.4054083
  31.1020113  58.8034913  34.4944083  31.1360113  59.7214913  27.3844083
  30.3030113  59.9714913  27.3124083  31.0800113  58.8814913  27.6134083
  31.0050113  59.6344913  27.4074083  20.3960113  56.7094913  32.5784083
  20.6300113  56.1334913  31.9654083  19.5540113  56.5284913  32.7194083
  20.3060113  56.5974913  32.5084083  28.0230113  64.3274913  35.0304083
  28.8940113  64.2914913  34.9944083  27.8040113  64.7474913  34.2984083
  28.1200113  64.3834913  34.9174083  23.3780113  66.2714913  18.6944083
  24.0950113  65.9244913  18.3384083  23.3440113  67.0714913  18.3464083
  23.4790113  66.3384913  18.5904083  24.7870113  54.9124913   2.9331673
  24.5420113  55.4004913   2.2531673  25.6500113  54.8394913   2.8331673
  24.8780113  54.9734913   2.8181673  24.5960113  61.8284913   7.6041673
  24.0720113  62.4244913   7.9671673  24.9930113  61.4604913   8.2881673
  24.5770113  61.8624913   7.7591673  14.4650113  65.9684913   3.0601673
  14.0240113  66.0864913   3.8031673  14.1820113  65.1934913   2.7751673
  14.3580113  65.8714913   3.1281673  27.2670113  62.8954913   4.2801673
  27.3470113  62.8994913   3.4111673  26.6830113  62.2634913   4.4291673
  27.1920113  62.8024913   4.1741673  16.9740113  66.6644913   2.1391673
  17.5820113  66.4944913   2.7421673  16.2230113  66.5244913   2.5601673
  16.9530113  66.6184913   2.2901673  21.2560113  55.9994913   2.0881673
  21.1860113  56.6764913   1.5421673  21.9970113  55.6114913   1.8391673
  21.3550113  56.0424913   1.9701673  14.4050113  68.7034913   9.3151673
  14.5340113  68.4234913  10.1311673  13.7950113  68.1624913   9.0061673
  14.3340113  68.5824913   9.3901673  20.9790113  66.2284913  14.3821673
  20.7430113  66.2254913  15.2221673  20.2310113  66.0804913  13.9581673
  20.8330113  66.2054913  14.4431673  15.8510113  63.2244913   3.5171673
  15.3890113  62.8324913   2.8901673  16.5510113  62.7114913   3.6091673
  15.8860113  63.0914913   3.4381673  20.3590113  58.8344913   8.8641673
  21.0370113  58.8524913   8.3151673  20.3140113  57.9984913   9.1091673
  20.4520113  58.7134913   8.8191673  17.8520113  61.3244913   3.5401673
  18.6690113  61.1374913   3.7831673  17.3750113  60.7104913   3.9361673
  17.9020113  61.2064913   3.6351673  22.0560113  67.3054913   6.1501673
  22.4040113  66.5064913   6.1801673  22.7210113  67.8094913   5.8951673
  22.2060113  67.2614913   6.1171673  22.1130113  66.7544913   2.3611673
  22.4440113  66.1104913   2.8471673  22.3530113  66.5434913   1.5501673
  22.1970113  66.6284913   2.3131673  24.0810113  60.8854913  13.7001673
  23.2330113  60.7864913  13.5221673  24.1100113  61.6304913  14.1541673
  23.9600113  60.9814913  13.7411673  18.4490113  56.4184913   2.8061673
  18.1530113  56.9194913   2.1561673  19.3160113  56.4964913   2.7491673
  18.5330113  56.5044913   2.7021673  28.6390113  53.8454913  12.8141673
  28.4810113  54.6144913  12.4321673  27.8670113  53.6254913  13.1581673
  28.5010113  53.9264913  12.8091673  21.4280113  55.5604913   5.0291673
  21.5010113  56.4204913   5.1581673  21.3900113  55.4854913   4.1611673
  21.4330113  55.6764913   4.9201673  14.3070113  60.9854913   6.5301673
  14.0510113  61.8164913   6.4551673  13.6430113  60.6024913   6.9471673
  14.1710113  61.0514913   6.5811673  20.0570113  68.5394913   1.9101673
  19.4780113  68.2644913   2.5021673  20.6810113  67.9304913   1.9351673
  20.0640113  68.4094913   2.0011673  17.3360113  55.8024913   7.0211673
  16.8150113  55.1744913   6.7131673  17.9270113  55.3654913   7.4921673
  17.3470113  55.6444913   7.0451673  20.6420113  57.9354913  16.3191673
  20.7590113  57.4814913  15.5831673  20.9300113  58.7334913  16.1161673
  20.7020113  57.9864913  16.1801673  31.4950113  58.4594913   3.6231673
  31.1490113  59.1374913   4.0491673  30.8590113  57.8614913   3.6391673
  31.3500113  58.4714913   3.6881673  16.3750113  57.5324913  15.3031673
  15.5970113  57.1424913  15.2311673  16.8660113  57.1204913  14.7121673
  16.3320113  57.4134913  15.2051673  16.5800113  67.8524913   5.8611673
  17.0030113  67.4964913   5.1871673  16.9040113  67.4304913   6.5531673
  16.6900113  67.7374913   5.8641673  23.0240113  55.1754913  14.4711673
  23.2020113  54.3664913  14.1961673  22.8810113  55.6164913  13.7321673
  23.0290113  55.1214913  14.3211673  23.6180113  60.1014913   3.2441673
  23.9050113  59.8694913   2.4541673  24.3500113  60.1804913   3.7131673
  23.7680113  60.0784913   3.1971673  31.1700113  56.7824913   8.9921673
  31.9270113  56.8544913   8.5641673  31.2330113  56.0094913   9.3911673
  31.2910113  56.6794913   8.9871673  13.7230113  58.0804913  12.8891673
  13.7190113  58.6674913  13.5351673  14.3170113  58.3924913  12.3321673
  13.8100113  58.2134913  12.9021673  26.0610113  68.4144913  13.4311673
  26.0270113  68.7964913  14.2151673  26.9150113  68.3724913  13.2601673
  26.1820113  68.4644913  13.5221673  14.6600113  57.6754913   1.8041673
  14.5460113  56.8114913   1.8351673  14.1850113  57.9694913   2.4741673
  14.5730113  57.5914913   1.9071673  22.5620113  58.1914913   4.9621673
  22.6360113  58.7594913   4.3041673  22.6830113  58.6834913   5.6721673
  22.5900113  58.3484913   4.9701673  27.7870113  68.0264913   3.3741673
  28.4880113  67.5444913   3.5631673  27.1270113  67.4574913   3.4191673
  27.7930113  67.8714913   3.4081673  18.1630113  68.9364913  12.5861673
  19.0040113  68.9994913  12.3641673  18.1260113  69.3334913  13.3621673
  18.2820113  69.0044913  12.6681673  17.1700113  54.0144913   3.3101673
  17.7060113  54.7024913   3.3001673  17.1730113  53.7404913   2.4821673
  17.2490113  54.0754913   3.1861673  20.1260113  64.4474913   7.3351673
  20.2980113  64.2374913   8.1641673  19.4710113  63.9134913   7.1191673
  20.0550113  64.3374913   7.4261673  26.3540113  58.3614913  10.8501673
  26.2590113  58.6804913  11.6561673  25.7610113  57.7224913  10.8121673
  26.2520113  58.3134913  10.9641673  20.8760113  64.3854913   9.9251673
  20.9290113  65.2324913  10.1271673  20.5910113  64.0154913  10.6621673
  20.8420113  64.4554913  10.0631673  27.0530113  65.0804913   9.0551673
  26.5390113  64.6684913   9.6261673  26.9270113  65.9244913   9.2361673
  26.9590113  65.1444913   9.1661673  27.6100113  54.3054913   3.6861673
  27.6590113  53.9874913   4.4971673  27.9330113  53.6614913   3.1931673
  27.6650113  54.1634913   3.7331673  13.6970113  68.7564913  16.1361673
  14.4530113  69.1054913  16.3941673  13.8740113  67.9034913  16.0791673
  13.8350113  68.6814913  16.1661673  30.0740113  58.5414913  11.9941673
  30.8460113  58.3164913  12.3311673  29.5990113  58.7584913  12.6941673
  30.1180113  58.5404913  12.1471673  17.6180113  57.8244913   4.9641673
  17.8900113  57.3944913   4.2561673  17.4420113  57.1884913   5.5351673
  17.6320113  57.6674913   4.9441673  17.4420113  65.2514913   4.5131673
  18.2930113  65.1714913   4.3401673  17.0850113  64.5694913   4.1011673
  17.5150113  65.1384913   4.4261673  15.7590113  58.9264913   8.0461673
  16.6020113  59.1464913   8.0031673  15.3700113  59.4994913   7.5151673
  15.8260113  59.0434913   7.9611673  19.8100113  65.2584913   2.7481673
  20.5230113  65.7534913   2.8381673  20.0320113  64.6914913   2.1221673
  19.9480113  65.2474913   2.6691673  13.9660113  66.9014913   6.0681673
  13.2990113  67.3894913   6.3441673  14.6460113  67.4464913   6.0971673
  13.9680113  67.0534913   6.1131673  21.6130113  60.6114913  16.1641673
  21.1290113  61.1884913  16.6061673  21.5850113  60.9064913  15.3431673
  21.5370113  60.7404913  16.1081673  32.7110113  61.2954913  10.7761673
  32.9260113  60.4954913  10.5001673  31.8610113  61.3554913  10.5871673
  32.6170113  61.1864913  10.7071673  24.3330113  68.9614913   5.0751673
  23.8100113  69.5954913   4.7821673  24.6430113  68.5974913   4.3461673
  24.3010113  69.0014913   4.9241673  18.4080113  66.7494913   7.8351673
  18.8750113  67.0384913   8.5131673  18.9800113  66.2714913   7.3811673
  18.5620113  66.7214913   7.8681673  26.8440113  58.7634913   5.5721673
  27.1880113  58.9154913   6.3591673  26.3910113  58.0254913   5.6851673
  26.8280113  58.6764913   5.7051673  14.9740113  64.4194913   6.3791673
  15.4050113  64.2904913   5.6321673  14.7690113  65.2674913   6.3531673
  15.0070113  64.5254913   6.2651673  19.0580113  67.9354913   4.6611673
  19.1840113  68.7784913   4.8481673  19.7260113  67.5364913   5.0571673
  19.1760113  68.0014913   4.7471673  17.1880113  61.4184913  14.5231673
  16.6520113  60.9124913  14.9911673  17.2080113  61.0284913  13.7431673
  17.1110113  61.2854913  14.4771673  17.8400113  62.6454913   6.2621673
  17.0590113  62.5864913   5.8791673  17.9120113  61.8934913   6.6991673
  17.7350113  62.5264913   6.2701673  18.2700113  62.3824913   9.7301673
  18.2950113  61.7074913   9.1791673  17.6240113  62.8784913   9.4181673
  18.1790113  62.3554913   9.6031673  28.1650113  60.0954913   8.1261673
  27.5030113  60.4234913   8.5891673  28.3520113  60.7294913   7.5571673
  28.0950113  60.2374913   8.1101673  24.8100113  56.0014913  11.5551673
  24.9590113  55.1764913  11.3121673  25.1890113  56.0564913  12.3391673
  24.8880113  55.8874913  11.6351673  16.0690113  63.7374913  15.2891673
  16.0320113  64.2384913  14.5751673  16.4000113  62.9854913  14.9941673
  16.1120113  63.6994913  15.1401673  27.6720113  65.9424913  13.5471673
  28.1560113  66.6604913  13.6451673  28.0660113  65.5154913  12.8961673
  27.8020113  65.9854913  13.4651673  21.9680113  68.7874913  14.7241673
  22.3220113  68.6094913  15.5011673  21.5320113  68.0584913  14.5251673
  21.9560113  68.6534913  14.8101673  22.9400113  59.5344913   7.3621673
  23.4200113  60.2334913   7.5701673  23.3130113  58.8874913   7.8131673
  23.0660113  59.5424913   7.4591673  30.1010113  66.5734913   3.6171673
  30.4570113  66.2234913   4.3321673  30.0930113  65.9124913   3.0471673
  30.1530113  66.4234913   3.6381673  26.1590113  66.4904913   6.8611673
  25.3620113  66.7144913   7.1351673  26.4170113  65.8964913   7.4461673
  26.0790113  66.4354913   6.9881673  29.4190113  64.4884913  11.7071673
  29.4740113  64.6134913  10.8451673  30.1720113  64.8084913  12.0091673
  29.5380113  64.5534913  11.6241673  30.4510113  54.7864913  14.6941673
  29.8140113  54.3864913  14.2521673  30.4770113  54.3554913  15.4521673
  30.3610113  54.6644913  14.7401673  25.1500113  64.2944913  11.3071673
  24.9950113  64.9044913  11.9111673  25.6840113  63.7364913  11.7131673
  25.2060113  64.3024913  11.4561673  23.5340113  62.6944913   1.9651673
  23.5930113  63.3444913   2.5441673  23.3450113  61.9984913   2.4561673
  23.5150113  62.6874913   2.1231673  28.7600113  67.0234913   7.8341673
  28.2810113  67.3214913   7.1681673  28.4040113  66.2474913   8.0121673
  28.6370113  66.9524913   7.7621673  22.7570113  64.7414913   6.3961673
  21.9100113  64.5474913   6.4771673  23.0810113  64.5764913   7.1891673
  22.6790113  64.6884913   6.5251673  16.6050113  64.4344913   8.7121673
  17.3270113  64.9224913   8.6751673  16.3350113  64.4044913   7.8831673
  16.6720113  64.5024913   8.5841673  19.8350113  59.6054913   5.4471673
  20.6810113  59.4154913   5.5451673  19.4650113  58.8284913   5.3091673
  19.9050113  59.4624913   5.4411673  29.6910113  63.9654913   8.9531673
  29.6840113  63.1894913   9.3511673  28.8500113  64.1994913   8.9461673
  29.5660113  63.8854913   9.0111673  16.0000113  65.4864913  12.9901673
  15.5790113  64.9684913  12.4291673  15.6480113  66.2724913  12.8471673
  15.8860113  65.5264913  12.8861673  30.9470113  64.0364913   6.3901673
  30.6610113  64.4374913   7.1101673  31.8070113  63.9744913   6.5171673
  31.0320113  64.0864913   6.5151673  28.6090113  57.9604913  14.9301673
  28.0840113  58.4194913  15.4541673  28.2480113  57.1654913  14.9241673
  28.4780113  57.9104913  15.0061673  14.1160113  56.8084913   6.8341673
  14.1600113  57.1524913   6.0331673  14.8710113  57.0454913   7.2011673
  14.2340113  56.8944913   6.7701673  27.1010113  61.5294913  15.0061673
  27.1740113  61.6334913  15.8691673  26.4670113  62.0874913  14.7851673
  27.0180113  61.6274913  15.1011673  29.3690113  61.8484913  13.3711673
  29.6880113  62.6344913  13.5741673  28.9990113  61.5784913  14.1141673
  29.3620113  61.9244913  13.5111673  29.1650113  60.1064913   4.5601673
  28.4200113  59.7834913   4.8781673  29.1670113  60.9324913   4.8401673
  29.0550113  60.1804913   4.6481673  32.0670113  62.3904913  16.1061673
  32.0150113  62.0494913  15.3051673  32.8040113  62.8574913  16.0841673
  32.1680113  62.4094913  15.9841673  31.6050113  66.0664913  12.3121673
  32.2330113  65.5174913  12.0561673  31.5440113  66.6314913  11.6501673
  31.6890113  66.0694913  12.1761673  20.7390113  67.2974913   9.6081673
  20.4410113  67.8894913  10.1751673  20.7940113  67.7394913   8.8591673
  20.7030113  67.4504913   9.5811673  18.7180113  66.2474913  13.0061673
  17.9120113  65.9574913  13.1731673  18.6290113  67.1154913  13.0121673
  18.5860113  66.3324913  13.0311673  28.0770113  56.4364913  12.0211673
  28.8210113  56.8884913  11.9581673  27.5110113  56.9064913  11.5521673
  28.1040113  56.5734913  11.9431673  23.2550113  63.7204913   9.0991673
  23.7310113  64.0944913   9.7271673  22.4320113  63.8544913   9.3581673
  23.2040113  63.7954913   9.2301673  19.9650113  59.3234913  11.8401673
  20.1260113  58.5794913  12.2671673  19.9200113  59.0744913  11.0051673
  19.9820113  59.1764913  11.7801673  29.3620113  54.4164913   9.6911673
  29.0820113  55.2414913   9.6471673  30.0780113  54.4694913  10.1871673
  29.4270113  54.5464913   9.7581673  21.7170113  55.1314913  11.7201673
  22.4220113  55.4514913  11.3181673  21.9580113  54.3244913  11.9471673
  21.8560113  55.0594913  11.6941673  25.0110113  65.9754913  14.7051673
  25.7680113  66.2614913  14.3791673  24.4640113  66.0274913  14.0271673
  25.0420113  66.0254913  14.5561673  28.9200113  68.5254913  13.2091673
  29.2660113  68.7954913  13.9631673  29.2140113  69.1074913  12.6291673
  29.0150113  68.6514913  13.2351673  18.2260113  60.1844913   7.7811673
  18.6660113  60.0814913   7.0351673  18.7710113  59.8714913   8.3861673
  18.3710113  60.1234913   7.7601673  26.2420113  59.2864913  13.3731673
  25.5940113  59.7564913  13.7211673  26.8070113  59.1974913  14.0321673
  26.2300113  59.3424913  13.5221673  25.9300113  60.8234913   9.6711673
  26.2320113  61.2434913  10.3741673  25.9660113  59.9834913   9.9031673
  25.9800113  60.7614913   9.8091673  28.4780113  60.2704913   1.9231673
  28.6850113  60.0694913   2.7471673  29.2340113  60.5384913   1.5811673
  28.6200113  60.2804913   1.9941673  21.7730113  55.1694913   7.8281673
  20.9470113  55.0204913   8.0651673  21.7330113  55.2044913   6.9571673
  21.6450113  55.1524913   7.7341673  29.5000113  56.3534913   3.3971673
  28.7860113  55.8824913   3.5681673  29.3380113  56.6944913   2.6111673
  29.3710113  56.3344913   3.3061673  29.9430113  64.2974913   1.7771673
  30.4190113  63.5684913   1.7291673  29.1220113  64.0114913   1.7011673
  29.8920113  64.1474913   1.7581673  23.4140113  66.2094913  12.6161673
  22.6190113  66.1454913  12.9671673  23.4850113  67.0564913  12.4211673
  23.3070113  66.3244913  12.6391673  14.3380113  55.5674913  13.8631673
  14.1980113  56.3624913  13.5321673  13.5520113  55.3244913  14.1521673
  14.2010113  55.6494913  13.8571673  26.1590113  65.4644913   4.1321673
  26.2350113  65.8054913   4.9311673  26.3280113  64.6174913   4.2531673
  26.1950113  65.3894913   4.2681673  23.6810113  64.7384913   3.6971673
  23.3830113  64.4234913   4.4541673  24.3760113  65.2114913   3.9321673
  23.7400113  64.7614913   3.8441673  23.9030113  68.8564913  11.7241673
  24.5900113  68.7424913  12.2491673  24.0370113  69.6474913  11.3801673
  24.0240113  68.9564913  11.7511673  32.0790113  61.4654913  13.5351673
  31.2240113  61.3434913  13.6611673  32.2320113  61.0704913  12.7721673
  31.9750113  61.3884913  13.4411673  26.5920113  62.1304913  12.1111673
  26.3370113  61.4114913  12.5331673  27.4130113  62.2464913  12.3811673
  26.6760113  62.0414913  12.2131673  24.5260113  63.3204913  15.2981673
  24.8490113  64.0064913  14.8661673  23.8220113  63.6434913  15.7001673
  24.4690113  63.4694913  15.2931673  24.3110113  66.7844913   9.1571673
  23.6170113  67.1864913   9.5001673  24.9880113  67.2174913   9.4961673
  24.3080113  66.9074913   9.2581673  29.6880113  69.3774913  15.7371673
  30.4640113  68.9874913  15.8201673  29.2190113  69.0414913  16.3921673
  29.7330113  69.2704913  15.8461673  17.3790113  60.3224913  11.5041673
  17.7540113  60.9414913  11.0171673  18.0530113  59.8484913  11.7891673
  17.5340113  60.3444913  11.4741673  15.1540113  58.7704913  10.7791673
  15.2310113  58.6014913   9.9261673  15.9000113  59.1764913  10.9761673
  15.2750113  58.8054913  10.6821673  17.7080113  56.1804913  13.1901673
  17.6270113  55.3364913  13.3961673  17.3940113  56.2244913  12.3771673
  17.6500113  56.0624913  13.1001673  24.6330113  68.3754913   2.3261673
  24.4280113  69.2084913   2.1671673  23.8580113  67.9934913   2.4481673
  24.4880113  68.4424913   2.3211673  29.8150113  61.5564913  10.5751673
  29.8130113  60.6934913  10.6991673  29.8820113  61.8804913  11.3821673
  29.8250113  61.4764913  10.7121673  14.5510113  63.9964913  11.0031673
  14.8710113  64.2154913  10.2221673  14.4510113  63.1314913  10.9481673
  14.5830113  63.9014913  10.8801673  25.6940113  56.3564913  14.3571673
  25.7860113  57.0684913  14.8511673  25.0570113  55.9114913  14.7541673
  25.6130113  56.3954913  14.4891673  24.6880113  56.5464913   5.2111673
  23.9880113  57.0644913   5.1551673  24.7260113  56.1664913   4.4271673
  24.5900113  56.5674913   5.0871673  28.2860113  57.0624913   8.0111673
  29.1410113  57.1614913   8.1561673  27.9170113  57.6154913   8.5761673
  28.3580113  57.1594913   8.1161673  19.3140113  63.2884913  12.3881673
  18.9180113  64.0624913  12.4631673  18.9080113  62.9154913  11.7121673
  19.1960113  63.3474913  12.2991673  28.5900113  62.3424913   6.5021673
  29.2560113  62.8834913   6.6621673  28.2450113  62.6534913   5.7631673
  28.6370113  62.4684913   6.4171673  19.7430113  56.2654913   9.8381673
  18.8790113  56.3494913   9.9181673  19.9630113  55.7514913  10.5071673
  19.6480113  56.2024913   9.9491673  31.7610113  54.9004913  11.1671673
  31.7090113  54.8564913  12.0371673  32.4480113  54.3974913  10.9771673
  31.8550113  54.8204913  11.2671673  23.8460113  57.0134913   8.2121673
  23.1090113  56.5594913   8.3251673  24.4170113  56.6114913   8.7351673
  23.8210113  56.8864913   8.3061673  26.5780113  67.8614913  10.0001673
  26.7840113  68.1624913  10.7921673  26.5170113  68.5834913   9.5151673
  26.5990113  68.0124913  10.0451673  21.3490113  61.3424913  13.4161673
  21.0270113  60.7664913  12.8461673  20.9900113  62.0974913  13.1701673
  21.2490113  61.3684913  13.2961673  31.3900113  66.5004913   9.4581673
  31.3580113  65.6384913   9.3231673  30.6970113  66.8024913   9.0241673
  31.2830113  66.4174913   9.3741673  29.4950113  69.7604913   8.2551673
  30.0220113  69.6774913   7.5641673  29.1040113  68.9824913   8.3091673
  29.5150113  69.6334913   8.1611673  16.9630113  56.3484913  10.4861673
  16.6200113  55.5814913  10.2521673  16.2680113  56.8724913  10.5501673
  16.8100113  56.3124913  10.4611673  26.0090113  55.2044913   7.4631673
  26.6790113  55.7484913   7.5901673  25.5060113  55.6284913   6.8901673
  26.0340113  55.3474913   7.3971673  25.3680113  61.0124913   4.9561673
  25.9190113  60.4054913   5.2561673  24.9430113  61.2754913   5.6711673
  25.3870113  60.9614913   5.1051673  15.6160113  59.6624913   4.4421673
  15.2480113  59.9644913   5.1731673  16.1500113  59.0334913   4.7261673
  15.6400113  59.6144913   4.5921673  15.3040113  68.0704913  11.9531673
  14.7300113  68.4864913  12.4621673  16.0370113  68.5354913  12.0481673
  15.3280113  68.2004913  12.0421673  30.6120113  64.2164913  14.6691673
  31.2460113  64.0464913  15.2431673  31.0290113  64.6194913  14.0171673
  30.7670113  64.2514913  14.6581673  31.2370113  58.7804913  15.4071673
  31.0410113  59.4244913  15.9621673  30.5150113  58.2904913  15.3991673
  31.1020113  58.8034913  15.4881673  31.1360113  59.7214913   8.3781673
  30.3030113  59.9714913   8.3061673  31.0800113  58.8814913   8.6071673
  31.0050113  59.6344913   8.4011673  20.3960113  56.7094913  13.5721673
  20.6300113  56.1334913  12.9591673  19.5540113  56.5284913  13.7131673
  20.3060113  56.5974913  13.5021673  28.0230113  64.3274913  16.0241673
  28.8940113  64.2914913  15.9881673  27.8040113  64.7474913  15.2921673
  28.1200113  64.3834913  15.9111673  24.7870113  36.4343833  78.9581313
  24.5420113  36.9223833  78.2781313  25.6500113  36.3613833  78.8581313
  24.8780113  36.4953833  78.8431313  24.5960113  43.3503833  83.6291313
  24.0720113  43.9463833  83.9921313  24.9930113  42.9823833  84.3131313
  24.5770113  43.3843833  83.7841313  14.4650113  47.4903833  79.0851313
  14.0240113  47.6083833  79.8281313  14.1820113  46.7153833  78.8001313
  14.3580113  47.3933833  79.1531313  30.7400113  50.7913833  76.6001313
  31.4410113  50.2723833  76.5961313  30.1530113  50.3463833  76.1311313
  30.7570113  50.6483833  76.5301313  14.2080113  41.2823833  75.5921313
  13.4300113  41.4443833  75.2321313  14.2470113  40.4113833  75.6141313
  14.0990113  41.1773833  75.5421313  17.3470113  46.5453833  74.2641313
  16.9550113  46.1743833  73.5781313  17.2670113  45.9473833  74.8931313
  17.2770113  46.4023833  74.2551313  27.2670113  44.4173833  80.3051313
  27.3470113  44.4213833  79.4361313  26.6830113  43.7853833  80.4541313
  27.1920113  44.3243833  80.1991313  16.9740113  48.1863833  78.1641313
  17.5820113  48.0163833  78.7671313  16.2230113  48.0463833  78.5851313
  16.9530113  48.1403833  78.3151313  21.2560113  37.5213833  78.1131313
  21.1860113  38.1983833  77.5671313  21.9970113  37.1333833  77.8641313
  21.3550113  37.5643833  77.9951313  15.8650113  51.2773833  74.2411313
  16.3320113  51.3613833  73.5091313  16.3200113  50.6993833  74.7101313
  16.0010113  51.2043833  74.2021313  14.4050113  50.2253833  85.3401313
  14.5340113  49.9453833  86.1561313  13.7950113  49.6843833  85.0311313
  14.3340113  50.1043833  85.4151313  15.8510113  44.7463833  79.5421313
  15.3890113  44.3543833  78.9151313  16.5510113  44.2333833  79.6341313
  15.8860113  44.6133833  79.4631313  20.3590113  40.3563833  84.8891313
  21.0370113  40.3743833  84.3401313  20.3140113  39.5203833  85.1341313
  20.4520113  40.2353833  84.8441313  20.9610113  50.9423833  87.6701313
  21.0990113  51.7023833  87.2631313  21.7520113  50.5773833  87.6971313
  21.0980113  51.0013833  87.6141313  17.8520113  42.8463833  79.5651313
  18.6690113  42.6593833  79.8081313  17.3750113  42.2323833  79.9611313
  17.9020113  42.7283833  79.6601313  22.0560113  48.8273833  82.1751313
  22.4040113  48.0283833  82.2051313  22.7210113  49.3313833  81.9201313
  22.2060113  48.7833833  82.1421313  22.1130113  48.2763833  78.3861313
  22.4440113  47.6323833  78.8721313  22.3530113  48.0653833  77.5751313
  22.1970113  48.1503833  78.3381313  18.4490113  37.9403833  78.8311313
  18.1530113  38.4413833  78.1811313  19.3160113  38.0183833  78.7741313
  18.5330113  38.0263833  78.7271313  21.4280113  37.0823833  81.0541313
  21.5010113  37.9423833  81.1831313  21.3900113  37.0073833  80.1861313
  21.4330113  37.1983833  80.9451313  26.1010113  40.0083833  73.3531313
  25.6510113  40.6893833  73.6601313  26.2150113  39.5043833  74.0561313
  26.0520113  40.0343833  73.5021313  14.3070113  42.5073833  82.5551313
  14.0510113  43.3383833  82.4801313  13.6430113  42.1243833  82.9721313
  14.1710113  42.5733833  82.6061313  14.2170113  52.2173833  80.4551313
  13.6250113  52.7753833  80.1421313  14.6430113  51.9483833  79.7431313
  14.1930113  52.2593833  80.3041313  20.0570113  50.0613833  77.9351313
  19.4780113  49.7863833  78.5271313  20.6810113  49.4523833  77.9601313
  20.0640113  49.9313833  78.0261313  26.2000113  52.3493833  75.4571313
  26.9270113  52.8213833  75.5591313  26.4290113  51.5553833  75.7371313
  26.3420113  52.3023833  75.5141313  24.3680113  52.7413833  77.4471313
  24.5820113  53.2683833  78.1091313  25.1350113  52.5673833  77.0681313
  24.5130113  52.7933833  77.4891313  17.3360113  37.3243833  83.0461313
  16.8150113  36.6963833  82.7381313  17.9270113  36.8873833  83.5171313
  17.3470113  37.1663833  83.0701313  15.7620113  50.8873833  78.3861313
  16.4180113  50.3123833  78.4011313  16.1510113  51.6363833  78.1651313
  15.9170113  50.9123833  78.3561313  31.4950113  39.9813833  79.6481313
  31.1490113  40.6593833  80.0741313  30.8590113  39.3833833  79.6641313
  31.3500113  39.9933833  79.7131313  26.8070113  52.7513833  85.7521313
  27.5510113  53.2073833  85.7421313  26.6860113  52.5373833  84.9151313
  26.8990113  52.7873833  85.6271313  16.5800113  49.3743833  81.8861313
  17.0030113  49.0183833  81.2121313  16.9040113  48.9523833  82.5781313
  16.6900113  49.2593833  81.8891313  19.8110113  52.2263833  81.1821313
  20.6550113  52.3303833  80.9871313  19.5140113  53.0443833  81.2501313
  19.8920113  52.3623833  81.1631313  23.6180113  41.6233833  79.2691313
  23.9050113  41.3913833  78.4791313  24.3500113  41.7023833  79.7381313
  23.7680113  41.6003833  79.2221313  24.3400113  41.9623833  74.3901313
  24.6210113  42.7503833  74.6391313  23.5640113  42.1273833  74.0271313
  24.2670113  42.1033833  74.3731313  28.3810113  53.9363833  75.8571313
  29.0460113  53.7883833  75.3121313  28.7410113  53.8533833  76.6471313
  28.5330113  53.9023833  75.8931313  18.8090113  53.4453833  86.9221313
  19.1010113  53.3783833  87.7421313  18.1830113  52.8403833  86.8771313
  18.7600113  53.3463833  87.0371313  31.1700113  38.3043833  85.0171313
  31.9270113  38.3763833  84.5891313  31.2330113  37.5313833  85.4161313
  31.2910113  38.2013833  85.0121313  23.1990113  50.1333833  74.2061313
  23.0180113  50.6783833  74.8631313  23.9650113  50.4233833  73.9051313
  23.2850113  50.2573833  74.2591313  26.7060113  38.0293833  75.2601313
  27.2460113  37.3473833  75.3361313  26.7680113  38.4273833  76.0341313
  26.7950113  37.9873833  75.3861313  14.6600113  39.1973833  77.8291313
  14.5460113  38.3333833  77.8601313  14.1850113  39.4913833  78.4991313
  14.5730113  39.1133833  77.9321313  16.8020113  51.6073833  86.0441313
  16.1040113  51.0993833  86.1701313  17.0620113  51.4023833  85.2361313
  16.7370113  51.5023833  85.9431313  23.9640113  40.4053833  76.5741313
  23.4560113  39.7433833  76.3201313  24.0160113  40.9093833  75.8641313
  23.8970113  40.3823833  76.4321313  24.5130113  53.1003833  86.9541313
  25.2810113  53.0203833  86.5481313  23.9300113  52.9793833  86.3161313
  24.5400113  53.0703833  86.8001313  23.9640113  37.3463833  76.4651313
  23.5090113  36.9443833  75.8391313  24.7370113  37.5013833  76.0901313
  24.0110113  37.3103833  76.3171313  30.7900113  53.7033833  79.8551313
  30.3350113  54.4203833  80.0561313  30.1760113  53.1323833  79.6131313
  30.6320113  53.7253833  79.8491313  22.5620113  39.7133833  80.9871313
  22.6360113  40.2813833  80.3291313  22.6830113  40.2053833  81.6971313
  22.5900113  39.8703833  80.9951313  27.7870113  49.5483833  79.3991313
  28.4880113  49.0663833  79.5881313  27.1270113  48.9793833  79.4441313
  27.7930113  49.3933833  79.4331313  17.1700113  35.5363833  79.3351313
  17.7060113  36.2243833  79.3251313  17.1730113  35.2623833  78.5071313
  17.2490113  35.5973833  79.2111313  20.1260113  45.9693833  83.3601313
  20.2980113  45.7593833  84.1891313  19.4710113  45.4353833  83.1441313
  20.0550113  45.8593833  83.4511313  26.3540113  39.8833833  86.8751313
  26.2590113  40.2023833  87.6811313  25.7610113  39.2443833  86.8371313
  26.2520113  39.8353833  86.9891313  20.8760113  45.9073833  85.9501313
  20.9290113  46.7543833  86.1521313  20.5910113  45.5373833  86.6871313
  20.8420113  45.9773833  86.0881313  27.0530113  46.6023833  85.0801313
  26.5390113  46.1903833  85.6511313  26.9270113  47.4463833  85.2611313
  26.9590113  46.6663833  85.1911313  27.6100113  35.8273833  79.7111313
  27.6590113  35.5093833  80.5221313  27.9330113  35.1833833  79.2181313
  27.6650113  35.6853833  79.7581313  17.6180113  39.3463833  80.9891313
  17.8900113  38.9163833  80.2811313  17.4420113  38.7103833  81.5601313
  17.6320113  39.1893833  80.9691313  30.3060113  47.0413833  75.2071313
  30.4250113  46.7543833  76.0221313  31.1130113  47.0623833  74.8771313
  30.4420113  47.0023833  75.2791313  17.4420113  46.7733833  80.5381313
  18.2930113  46.6933833  80.3651313  17.0850113  46.0913833  80.1261313
  17.5150113  46.6603833  80.4511313  16.2090113  53.4983833  81.7751313
  15.5360113  53.0003833  81.5301313  16.6120113  53.6833833  81.0241313
  16.1690113  53.4523833  81.6281313  15.7590113  40.4483833  84.0711313
  16.6020113  40.6683833  84.0281313  15.3700113  41.0213833  83.5401313
  15.8260113  40.5653833  83.9861313  28.2010113  43.5783833  74.7921313
  27.9810113  44.3093833  74.3701313  27.7530113  43.6293833  75.5391313
  28.1020113  43.6933833  74.8401313  19.8100113  46.7803833  78.7731313
  20.5230113  47.2753833  78.8631313  20.0320113  46.2133833  78.1471313
  19.9480113  46.7693833  78.6941313  32.3880113  38.4393833  74.2451313
  31.7260113  37.8713833  74.2681313  32.1950113  38.9513833  73.5651313
  32.2620113  38.4313833  74.1481313  13.9660113  48.4233833  82.0931313
  13.2990113  48.9113833  82.3691313  14.6460113  48.9683833  82.1221313
  13.9680113  48.5753833  82.1381313  32.7110113  42.8173833  86.8011313
  32.9260113  42.0173833  86.5251313  31.8610113  42.8773833  86.6121313
  32.6170113  42.7083833  86.7321313  14.0320113  45.1073833  77.1961313
  13.8470113  44.2683833  77.3481313  14.6910113  45.0713833  76.6261313
  14.1020113  44.9783833  77.1341313  30.3900113  37.9973833  76.5241313
  31.1360113  37.5903833  76.7231313  30.6530113  38.7123833  76.0991313
  30.5390113  38.0433833  76.4911313  24.3330113  50.4833833  81.1001313
  23.8100113  51.1173833  80.8071313  24.6430113  50.1193833  80.3711313
  24.3010113  50.5233833  80.9491313  14.2040113  49.2713833  76.7711313
  14.7560113  49.8403833  77.1351313  13.9720113  48.7563833  77.4361313
  14.2510113  49.2793833  76.9231313  18.4080113  48.2713833  83.8601313
  18.8750113  48.5603833  84.5381313  18.9800113  47.7933833  83.4061313
  18.5620113  48.2433833  83.8931313  26.8440113  40.2853833  81.5971313
  27.1880113  40.4373833  82.3841313  26.3910113  39.5473833  81.7101313
  26.8280113  40.1983833  81.7301313  14.0340113  47.7203833  74.3991313
  14.7900113  47.2883833  74.4571313  14.0490113  48.2523833  75.0901313
  14.1480113  47.7353833  74.5101313  14.9740113  45.9413833  82.4041313
  15.4050113  45.8123833  81.6571313  14.7690113  46.7893833  82.3781313
  15.0070113  46.0473833  82.2901313  21.3200113  39.5053833  76.0541313
  21.3180113  39.3883833  75.1891313  21.1390113  40.3533833  76.1461313
  21.2930113  39.6133833  75.9401313  30.3740113  51.9323833  87.5511313
  29.7030113  52.4463833  87.7691313  30.4370113  52.0323833  86.6871313
  30.2840113  52.0233833  87.4561313  19.0580113  49.4573833  80.6861313
  19.1840113  50.3003833  80.8731313  19.7260113  49.0583833  81.0821313
  19.1760113  49.5233833  80.7721313  17.6730113  42.3373833  75.6881313
  17.5450113  41.8893833  76.4261313  17.0910113  41.9953833  75.1361313
  17.5680113  42.2203833  75.7161313  17.8400113  44.1673833  82.2871313
  17.0590113  44.1083833  81.9041313  17.9120113  43.4153833  82.7241313
  17.7350113  44.0483833  82.2951313  18.2700113  43.9043833  85.7551313
  18.2950113  43.2293833  85.2041313  17.6240113  44.4003833  85.4431313
  18.1790113  43.8773833  85.6281313  28.1650113  41.6173833  84.1511313
  27.5030113  41.9453833  84.6141313  28.3520113  42.2513833  83.5821313
  28.0950113  41.7593833  84.1351313  22.3700113  52.6813833  85.1471313
  22.0930113  52.0403833  84.6241313  22.1620113  53.4073833  84.7091313
  22.2990113  52.6943833  85.0051313  26.3580113  39.5863833  77.6621313
  26.8480113  40.3033833  77.5851313  25.5680113  39.8473833  77.3991313
  26.3140113  39.7303833  77.6121313  22.9400113  41.0563833  83.3871313
  23.4200113  41.7553833  83.5951313  23.3130113  40.4093833  83.8381313
  23.0660113  41.0643833  83.4841313  25.1290113  44.2253833  75.6611313
  25.1210113  44.9473833  75.1711313  24.4900113  44.3603833  76.2381313
  25.0340113  44.3523833  75.6741313  30.1010113  48.0953833  79.6421313
  30.4570113  47.7453833  80.3571313  30.0930113  47.4343833  79.0721313
  30.1530113  47.9453833  79.6631313  26.1460113  51.1613833  83.4861313
  25.5430113  50.8653833  82.9291313  26.6910113  51.6133833  82.9771313
  26.1370113  51.1843833  83.3281313  26.1590113  48.0123833  82.8861313
  25.3620113  48.2363833  83.1601313  26.4170113  47.4183833  83.4711313
  26.0790113  47.9573833  83.0131313  20.0510113  52.8243833  77.3341313
  19.9040113  52.0483833  77.7051313  20.7400113  52.6773833  76.8191313
  20.1310113  52.6873833  77.3131313  19.7220113  36.5673833  75.3221313
  19.8190113  36.4603833  76.1831313  19.0140113  37.0733833  75.2571313
  19.6320113  36.6263833  75.4401313  22.3430113  52.3403833  75.7361313
  22.9650113  52.5033833  76.3261313  22.3790113  53.0313833  75.2041313
  22.4400113  52.4663833  75.7451313  29.4190113  46.0103833  87.7321313
  29.4740113  46.1353833  86.8701313  30.1720113  46.3303833  88.0341313
  29.5380113  46.0753833  87.6491313  16.8440113  44.8743833  76.5651313
  17.1680113  44.0953833  76.3431313  17.4900113  45.2423833  77.0201313
  16.9870113  44.8133833  76.5991313  25.1500113  45.8163833  87.3321313
  24.9950113  46.4263833  87.9361313  25.6840113  45.2583833  87.7381313
  25.2060113  45.8243833  87.4811313  13.8410113  36.5353833  77.5331313
  13.9700113  35.8273833  77.0411313  13.4740113  36.2173833  78.2581313
  13.8060113  36.3833833  77.5681313  23.5340113  44.2163833  77.9901313
  23.5930113  44.8663833  78.5691313  23.3450113  43.5203833  78.4811313
  23.5150113  44.2093833  78.1481313  28.7600113  48.5453833  83.8591313
  28.2810113  48.8433833  83.1931313  28.4040113  47.7693833  84.0371313
  28.6370113  48.4743833  83.7871313  18.0300113  38.7333833  74.5021313
  17.5190113  38.7863833  73.7961313  18.8140113  38.9733833  74.2061313
  18.0700113  38.7763833  74.3541313  22.7570113  46.2633833  82.4211313
  21.9100113  46.0693833  82.5021313  23.0810113  46.0983833  83.2141313
  22.6790113  46.2103833  82.5501313  19.5090113  52.9933833  73.3071313
  19.9480113  52.2963833  73.5951313  19.7160113  53.6173833  73.8801313
  19.6050113  52.9823833  73.4341313  16.6050113  45.9563833  84.7371313
  17.3270113  46.4443833  84.7001313  16.3350113  45.9263833  83.9081313
  16.6720113  46.0243833  84.6091313  19.8350113  41.1273833  81.4721313
  20.6810113  40.9373833  81.5701313  19.4650113  40.3503833  81.3341313
  19.9050113  40.9843833  81.4661313  32.4520113  52.7113833  75.7991313
  33.1460113  52.2443833  75.5511313  31.9130113  52.1133833  76.1361313
  32.4750113  52.5533833  75.8121313  14.6560113  42.4653833  78.1271313
  15.1450113  42.1733833  78.7881313  14.7850113  41.8723833  77.5001313
  14.7470113  42.3343833  78.1321313  29.6910113  45.4873833  84.9781313
  29.6840113  44.7113833  85.3761313  28.8500113  45.7213833  84.9711313
  29.5660113  45.4073833  85.0361313  19.1810113  43.8993833  73.6131313
  18.5710113  43.4943833  74.0871313  18.7950113  44.0173833  72.8401313
  19.0340113  43.8563833  73.5691313  30.9470113  45.5583833  82.4151313
  30.6610113  45.9593833  83.1351313  31.8070113  45.4963833  82.5421313
  31.0320113  45.6083833  82.5401313  20.6360113  42.3603833  76.3231313
  20.9080113  43.1863833  76.3901313  19.7730113  42.4353833  76.2271313
  20.5490113  42.4933833  76.3181313  14.1160113  38.3303833  82.8591313
  14.1600113  38.6743833  82.0581313  14.8710113  38.5673833  83.2261313
  14.2340113  38.4163833  82.7951313  32.0780113  51.1913833  82.9441313
  32.3680113  51.4483833  82.1631313  32.7730113  51.2873833  83.4631313
  32.2240113  51.2433833  82.9051313  28.6830113  49.7943833  74.9261313
  29.0170113  48.9883833  74.9611313  27.9280113  49.7223833  75.3561313
  28.6210113  49.6643833  74.9951313  29.1650113  41.6283833  80.5851313
  28.4200113  41.3053833  80.9031313  29.1670113  42.4543833  80.8651313
  29.0550113  41.7023833  80.6731313  26.0570113  47.6693833  74.3291313
  26.7410113  47.1553833  74.1601313  25.6400113  47.7153833  73.5641313
  26.0960113  47.6003833  74.1911313  20.7390113  48.8193833  85.6331313
  20.4410113  49.4113833  86.2001313  20.7940113  49.2613833  84.8841313
  20.7030113  48.9723833  85.6061313  28.0770113  37.9583833  88.0461313
  28.8210113  38.4103833  87.9831313  27.5110113  38.4283833  87.5771313
  28.1040113  38.0953833  87.9681313  23.2550113  45.2423833  85.1241313
  23.7310113  45.6163833  85.7521313  22.4320113  45.3763833  85.3831313
  23.2040113  45.3173833  85.2551313  22.5190113  52.6353833  80.3521313
  23.0650113  53.3143833  80.4061313  22.1690113  52.7173833  79.5571313
  22.5480113  52.7483833  80.2421313  29.3620113  35.9383833  85.7161313
  29.0820113  36.7633833  85.6721313  30.0780113  35.9913833  86.2121313
  29.4270113  36.0683833  85.7831313  21.7170113  36.6533833  87.7451313
  22.4220113  36.9733833  87.3431313  21.9580113  35.8463833  87.9721313
  21.8560113  36.5813833  87.7191313  20.7020113  50.8633833  83.7411313
  20.0780113  51.4453833  83.5591313  20.9500113  50.5773833  82.9551313
  20.6460113  50.9073833  83.5981313  30.7830113  42.1933833  74.5731313
  31.1610113  42.8703833  74.1731313  29.9410113  42.4173833  74.6041313
  30.7140113  42.3263833  74.5181313  22.2960113  45.6393833  73.6561313
  21.4910113  45.4623833  73.3711313  22.2630113  46.4903833  73.8481313
  22.1720113  45.7383833  73.6431313  18.2260113  41.7063833  83.8061313
  18.6660113  41.6033833  83.0601313  18.7710113  41.3933833  84.4111313
  18.3710113  41.6453833  83.7851313  25.9300113  42.3453833  85.6961313
  26.2320113  42.7653833  86.3991313  25.9660113  41.5053833  85.9281313
  25.9800113  42.2833833  85.8341313  28.4780113  41.7923833  77.9481313
  28.6850113  41.5913833  78.7721313  29.2340113  42.0603833  77.6061313
  28.6200113  41.8023833  78.0191313  21.7730113  36.6913833  83.8531313
  20.9470113  36.5423833  84.0901313  21.7330113  36.7263833  82.9821313
  21.6450113  36.6743833  83.7591313  29.5000113  37.8753833  79.4221313
  28.7860113  37.4043833  79.5931313  29.3380113  38.2163833  78.6361313
  29.3710113  37.8563833  79.3311313  29.9430113  45.8193833  77.8021313
  30.4190113  45.0903833  77.7541313  29.1220113  45.5333833  77.7261313
  29.8920113  45.6693833  77.7831313  19.2440113  53.9383833  83.9581313
  19.2550113  53.9973833  84.8281313  18.8190113  53.1913833  83.8081313
  19.1830113  53.8363833  84.0641313  17.4020113  39.8333833  77.1131313
  17.5280113  39.5043833  76.3151313  16.5900113  39.5843833  77.3121313
  17.3010113  39.7483833  77.0251313  26.1590113  46.9863833  80.1571313
  26.2350113  47.3273833  80.9561313  26.3280113  46.1393833  80.2781313
  26.1950113  46.9113833  80.2931313  23.6810113  46.2603833  79.7221313
  23.3830113  45.9453833  80.4791313  24.3760113  46.7333833  79.9571313
  23.7400113  46.2833833  79.8691313  27.6100113  53.2163833  82.2521313
  27.1590113  53.8593833  82.6311313  28.3180113  53.1373833  82.7571313
  27.6480113  53.2993833  82.3831313  24.3110113  48.3063833  85.1821313
  23.6170113  48.7083833  85.5251313  24.9880113  48.7393833  85.5211313
  24.3080113  48.4293833  85.2831313  17.3790113  41.8443833  87.5291313
  17.7540113  42.4633833  87.0421313  18.0530113  41.3703833  87.8141313
  17.5340113  41.8663833  87.4991313  15.1540113  40.2923833  86.8041313
  15.2310113  40.1233833  85.9511313  15.9000113  40.6983833  87.0011313
  15.2750113  40.3273833  86.7071313  30.7130113  42.9323833  77.2441313
  30.8160113  42.8743833  76.3801313  31.4540113  42.6003833  77.5621313
  30.8380113  42.8753833  77.1631313  24.6330113  49.8973833  78.3511313
  24.4280113  50.7303833  78.1921313  23.8580113  49.5153833  78.4731313
  24.4880113  49.9643833  78.3461313  29.8150113  43.0783833  86.6001313
  29.8130113  42.2153833  86.7241313  29.8820113  43.4023833  87.4071313
  29.8250113  42.9983833  86.7371313  14.5510113  45.5183833  87.0281313
  14.8710113  45.7373833  86.2471313  14.4510113  44.6533833  86.9731313
  14.5830113  45.4233833  86.9051313  16.0070113  41.4543833  73.6461313
  15.3350113  41.4683833  74.2021313  16.1020113  40.6063833  73.4621313
  15.9220113  41.3313833  73.7011313  24.6880113  38.0683833  81.2361313
  23.9880113  38.5863833  81.1801313  24.7260113  37.6883833  80.4521313
  24.5900113  38.0893833  81.1121313  19.9950113  50.1593833  74.7601313
  20.4360113  50.2393833  75.5081313  19.1900113  49.9433833  75.0181313
  19.9410113  50.1393833  74.9091313  28.2860113  38.5843833  84.0361313
  29.1410113  38.6833833  84.1811313  27.9170113  39.1373833  84.6011313
  28.3580113  38.6813833  84.1411313  28.5900113  43.8643833  82.5271313
  29.2560113  44.4053833  82.6871313  28.2450113  44.1753833  81.7881313
  28.6370113  43.9903833  82.4421313  28.9030113  51.9303833  78.3341313
  28.7290113  51.2763833  78.8841313  29.6160113  51.6593833  77.9111313
  28.9830113  51.7933833  78.3531313  17.3240113  49.2293833  75.3611313
  17.0800113  48.9223833  76.1411313  17.2910113  48.5263833  74.8451313
  17.2830113  49.0803833  75.4001313  20.1430113  47.4743833  74.1041313
  19.3250113  47.2063833  74.2441313  20.1150113  48.3263833  74.2891313
  20.0180113  47.5613833  74.1521313  19.7430113  37.7873833  85.8631313
  18.8790113  37.8713833  85.9431313  19.9630113  37.2733833  86.5321313
  19.6480113  37.7243833  85.9741313  31.7610113  36.4223833  87.1921313
  31.7090113  36.3783833  88.0621313  32.4480113  35.9193833  87.0021313
  31.8550113  36.3423833  87.2921313  23.8460113  38.5353833  84.2371313
  23.1090113  38.0813833  84.3501313  24.4170113  38.1333833  84.7601313
  23.8210113  38.4083833  84.3311313  26.5780113  49.3833833  86.0251313
  26.7840113  49.6843833  86.8171313  26.5170113  50.1053833  85.5401313
  26.5990113  49.5343833  86.0701313  22.1450113  36.1163833  74.0681313
  22.2230113  36.3633833  73.2351313  21.4020113  36.4933833  74.3261313
  22.0470113  36.2083833  73.9831313  31.3900113  48.0223833  85.4831313
  31.3580113  47.1603833  85.3481313  30.6970113  48.3243833  85.0491313
  31.2830113  47.9393833  85.3991313  29.4950113  51.2823833  84.2801313
  30.0220113  51.1993833  83.5891313  29.1040113  50.5043833  84.3341313
  29.5150113  51.1553833  84.1861313  16.9630113  37.8703833  86.5111313
  16.6200113  37.1033833  86.2771313  16.2680113  38.3943833  86.5751313
  16.8100113  37.8343833  86.4861313  26.0090113  36.7263833  83.4881313
  26.6790113  37.2703833  83.6151313  25.5060113  37.1503833  82.9151313
  26.0340113  36.8693833  83.4221313  25.3680113  42.5343833  80.9811313
  25.9190113  41.9273833  81.2811313  24.9430113  42.7973833  81.6961313
  25.3870113  42.4833833  81.1301313  15.6160113  41.1843833  80.4671313
  15.2480113  41.4863833  81.1981313  16.1500113  40.5553833  80.7511313
  15.6400113  41.1363833  80.6171313  27.3380113  44.3653833  77.5431313
  27.4060113  43.5153833  77.7241313  26.5150113  44.4513833  77.2651313
  27.2260113  44.2523833  77.5291313  17.0900113  52.8593833  76.7531313
  16.9450113  53.0153833  75.9071313  17.9560113  52.9383833  76.8311313
  17.1970113  52.8943833  76.6401313  21.2570113  45.2563833  76.4811313
  21.3570113  45.3953833  75.6261313  22.0750113  45.1963833  76.7771313
  21.3920113  45.2673833  76.3981313  30.4170113  53.3203833  73.9611313
  31.0540113  53.1863833  74.5421313  30.0760113  52.5263833  73.8441313
  30.4610113  53.1833833  74.0291313  26.4920113  49.5853833  76.2831313
  26.2410113  49.4573833  77.1091313  26.1750113  48.8903833  75.8621313
  26.4080113  49.4643833  76.3431313  31.1360113  41.2433833  84.4031313
  30.3030113  41.4933833  84.3311313  31.0800113  40.4033833  84.6321313
  31.0050113  41.1563833  84.4261313  17.7770113  51.6743833  83.2301313
  17.6980113  50.8643833  82.9141313  17.3330113  52.1613833  82.6581313
  17.7000113  51.6263833  83.0991313  23.3780113  47.7933833  75.7131313
  24.0950113  47.4463833  75.3571313  23.3440113  48.5933833  75.3651313
  23.4790113  47.8603833  75.6091313  15.3490113  53.9183833  86.8111313
  15.8420113  53.8623833  87.5291313  15.5370113  53.1853833  86.3761313
  15.4500113  53.8013833  86.8531313  24.7870113  36.4343833  59.9518903
  24.5420113  36.9223833  59.2718903  25.6500113  36.3613833  59.8518903
  24.8780113  36.4953833  59.8368903  24.5960113  43.3503833  64.6228903
  24.0720113  43.9463833  64.9858903  24.9930113  42.9823833  65.3068903
  24.5770113  43.3843833  64.7778903  14.4650113  47.4903833  60.0788903
  14.0240113  47.6083833  60.8218903  14.1820113  46.7153833  59.7938903
  14.3580113  47.3933833  60.1468903  30.7400113  50.7913833  57.5938903
  31.4410113  50.2723833  57.5898903  30.1530113  50.3463833  57.1248903
  30.7570113  50.6483833  57.5238903  14.2080113  41.2823833  56.5858903
  13.4300113  41.4443833  56.2258903  14.2470113  40.4113833  56.6078903
  14.0990113  41.1773833  56.5358903  17.3470113  46.5453833  55.2578903
  16.9550113  46.1743833  54.5718903  17.2670113  45.9473833  55.8868903
  17.2770113  46.4023833  55.2488903  27.2670113  44.4173833  61.2988903
  27.3470113  44.4213833  60.4298903  26.6830113  43.7853833  61.4478903
  27.1920113  44.3243833  61.1928903  16.9740113  48.1863833  59.1578903
  17.5820113  48.0163833  59.7608903  16.2230113  48.0463833  59.5788903
  16.9530113  48.1403833  59.3088903  21.2560113  37.5213833  59.1068903
  21.1860113  38.1983833  58.5608903  21.9970113  37.1333833  58.8578903
  21.3550113  37.5643833  58.9888903  15.8650113  51.2773833  55.2348903
  16.3320113  51.3613833  54.5028903  16.3200113  50.6993833  55.7038903
  16.0010113  51.2043833  55.1958903  14.4050113  50.2253833  66.3338903
  14.5340113  49.9453833  67.1498903  13.7950113  49.6843833  66.0248903
  14.3340113  50.1043833  66.4088903  20.9790113  47.7503833  71.4008903
  20.7430113  47.7473833  72.2408903  20.2310113  47.6023833  70.9768903
  20.8330113  47.7273833  71.4618903  15.8510113  44.7463833  60.5358903
  15.3890113  44.3543833  59.9088903  16.5510113  44.2333833  60.6278903
  15.8860113  44.6133833  60.4568903  20.3590113  40.3563833  65.8828903
  21.0370113  40.3743833  65.3338903  20.3140113  39.5203833  66.1278903
  20.4520113  40.2353833  65.8378903  20.9610113  50.9423833  68.6638903
  21.0990113  51.7023833  68.2568903  21.7520113  50.5773833  68.6908903
  21.0980113  51.0013833  68.6078903  17.8520113  42.8463833  60.5588903
  18.6690113  42.6593833  60.8018903  17.3750113  42.2323833  60.9548903
  17.9020113  42.7283833  60.6538903  22.0560113  48.8273833  63.1688903
  22.4040113  48.0283833  63.1988903  22.7210113  49.3313833  62.9138903
  22.2060113  48.7833833  63.1358903  22.1130113  48.2763833  59.3798903
  22.4440113  47.6323833  59.8658903  22.3530113  48.0653833  58.5688903
  22.1970113  48.1503833  59.3318903  24.0810113  42.4073833  70.7188903
  23.2330113  42.3083833  70.5408903  24.1100113  43.1523833  71.1728903
  23.9600113  42.5033833  70.7598903  18.4490113  37.9403833  59.8248903
  18.1530113  38.4413833  59.1748903  19.3160113  38.0183833  59.7678903
  18.5330113  38.0263833  59.7208903  28.6390113  35.3673833  69.8328903
  28.4810113  36.1363833  69.4508903  27.8670113  35.1473833  70.1768903
  28.5010113  35.4483833  69.8278903  21.4280113  37.0823833  62.0478903
  21.5010113  37.9423833  62.1768903  21.3900113  37.0073833  61.1798903
  21.4330113  37.1983833  61.9388903  26.1010113  40.0083833  54.3468903
  25.6510113  40.6893833  54.6538903  26.2150113  39.5043833  55.0498903
  26.0520113  40.0343833  54.4958903  14.3070113  42.5073833  63.5488903
  14.0510113  43.3383833  63.4738903  13.6430113  42.1243833  63.9658903
  14.1710113  42.5733833  63.5998903  14.2170113  52.2173833  61.4488903
  13.6250113  52.7753833  61.1358903  14.6430113  51.9483833  60.7368903
  14.1930113  52.2593833  61.2978903  20.0570113  50.0613833  58.9288903
  19.4780113  49.7863833  59.5208903  20.6810113  49.4523833  58.9538903
  20.0640113  49.9313833  59.0198903  26.2000113  52.3493833  56.4508903
  26.9270113  52.8213833  56.5528903  26.4290113  51.5553833  56.7308903
  26.3420113  52.3023833  56.5078903  24.3680113  52.7413833  58.4408903
  24.5820113  53.2683833  59.1028903  25.1350113  52.5673833  58.0618903
  24.5130113  52.7933833  58.4828903  17.3360113  37.3243833  64.0398903
  16.8150113  36.6963833  63.7318903  17.9270113  36.8873833  64.5108903
  17.3470113  37.1663833  64.0638903  20.6420113  39.4573833  73.3378903
  20.7590113  39.0033833  72.6018903  20.9300113  40.2553833  73.1348903
  20.7020113  39.5083833  73.1988903  15.7620113  50.8873833  59.3798903
  16.4180113  50.3123833  59.3948903  16.1510113  51.6363833  59.1588903
  15.9170113  50.9123833  59.3498903  31.4950113  39.9813833  60.6418903
  31.1490113  40.6593833  61.0678903  30.8590113  39.3833833  60.6578903
  31.3500113  39.9933833  60.7068903  26.8070113  52.7513833  66.7458903
  27.5510113  53.2073833  66.7358903  26.6860113  52.5373833  65.9088903
  26.8990113  52.7873833  66.6208903  16.3750113  39.0543833  72.3218903
  15.5970113  38.6643833  72.2498903  16.8660113  38.6423833  71.7308903
  16.3320113  38.9353833  72.2238903  16.5800113  49.3743833  62.8798903
  17.0030113  49.0183833  62.2058903  16.9040113  48.9523833  63.5718903
  16.6900113  49.2593833  62.8828903  19.8110113  52.2263833  62.1758903
  20.6550113  52.3303833  61.9808903  19.5140113  53.0443833  62.2438903
  19.8920113  52.3623833  62.1568903  23.0240113  36.6973833  71.4898903
  23.2020113  35.8883833  71.2148903  22.8810113  37.1383833  70.7508903
  23.0290113  36.6433833  71.3398903  23.6180113  41.6233833  60.2628903
  23.9050113  41.3913833  59.4728903  24.3500113  41.7023833  60.7318903
  23.7680113  41.6003833  60.2158903  24.3400113  41.9623833  55.3838903
  24.6210113  42.7503833  55.6328903  23.5640113  42.1273833  55.0208903
  24.2670113  42.1033833  55.3668903  28.3810113  53.9363833  56.8508903
  29.0460113  53.7883833  56.3058903  28.7410113  53.8533833  57.6408903
  28.5330113  53.9023833  56.8868903  18.8090113  53.4453833  67.9158903
  19.1010113  53.3783833  68.7358903  18.1830113  52.8403833  67.8708903
  18.7600113  53.3463833  68.0308903  31.1700113  38.3043833  66.0108903
  31.9270113  38.3763833  65.5828903  31.2330113  37.5313833  66.4098903
  31.2910113  38.2013833  66.0058903  13.7230113  39.6023833  69.9078903
  13.7190113  40.1893833  70.5538903  14.3170113  39.9143833  69.3508903
  13.8100113  39.7353833  69.9208903  26.0610113  49.9363833  70.4498903
  26.0270113  50.3183833  71.2338903  26.9150113  49.8943833  70.2788903
  26.1820113  49.9863833  70.5408903  23.1990113  50.1333833  55.1998903
  23.0180113  50.6783833  55.8568903  23.9650113  50.4233833  54.8988903
  23.2850113  50.2573833  55.2528903  26.7060113  38.0293833  56.2538903
  27.2460113  37.3473833  56.3298903  26.7680113  38.4273833  57.0278903
  26.7950113  37.9873833  56.3798903  14.6600113  39.1973833  58.8228903
  14.5460113  38.3333833  58.8538903  14.1850113  39.4913833  59.4928903
  14.5730113  39.1133833  58.9258903  16.8020113  51.6073833  67.0378903
  16.1040113  51.0993833  67.1638903  17.0620113  51.4023833  66.2298903
  16.7370113  51.5023833  66.9368903  23.9640113  40.4053833  57.5678903
  23.4560113  39.7433833  57.3138903  24.0160113  40.9093833  56.8578903
  23.8970113  40.3823833  57.4258903  24.5130113  53.1003833  67.9478903
  25.2810113  53.0203833  67.5418903  23.9300113  52.9793833  67.3098903
  24.5400113  53.0703833  67.7938903  23.9640113  37.3463833  57.4588903
  23.5090113  36.9443833  56.8328903  24.7370113  37.5013833  57.0838903
  24.0110113  37.3103833  57.3108903  30.7900113  53.7033833  60.8488903
  30.3350113  54.4203833  61.0498903  30.1760113  53.1323833  60.6068903
  30.6320113  53.7253833  60.8428903  22.5620113  39.7133833  61.9808903
  22.6360113  40.2813833  61.3228903  22.6830113  40.2053833  62.6908903
  22.5900113  39.8703833  61.9888903  27.7870113  49.5483833  60.3928903
  28.4880113  49.0663833  60.5818903  27.1270113  48.9793833  60.4378903
  27.7930113  49.3933833  60.4268903  18.1630113  50.4583833  69.6048903
  19.0040113  50.5213833  69.3828903  18.1260113  50.8553833  70.3808903
  18.2820113  50.5263833  69.6868903  17.1700113  35.5363833  60.3288903
  17.7060113  36.2243833  60.3188903  17.1730113  35.2623833  59.5008903
  17.2490113  35.5973833  60.2048903  20.1260113  45.9693833  64.3538903
  20.2980113  45.7593833  65.1828903  19.4710113  45.4353833  64.1378903
  20.0550113  45.8593833  64.4448903  26.3540113  39.8833833  67.8688903
  26.2590113  40.2023833  68.6748903  25.7610113  39.2443833  67.8308903
  26.2520113  39.8353833  67.9828903  20.8760113  45.9073833  66.9438903
  20.9290113  46.7543833  67.1458903  20.5910113  45.5373833  67.6808903
  20.8420113  45.9773833  67.0818903  27.0530113  46.6023833  66.0738903
  26.5390113  46.1903833  66.6448903  26.9270113  47.4463833  66.2548903
  26.9590113  46.6663833  66.1848903  13.6970113  50.2783833  73.1548903
  14.4530113  50.6273833  73.4128903  13.8740113  49.4253833  73.0978903
  13.8350113  50.2033833  73.1848903  30.0740113  40.0633833  69.0128903
  30.8460113  39.8383833  69.3498903  29.5990113  40.2803833  69.7128903
  30.1180113  40.0623833  69.1658903  17.6180113  39.3463833  61.9828903
  17.8900113  38.9163833  61.2748903  17.4420113  38.7103833  62.5538903
  17.6320113  39.1893833  61.9628903  30.3060113  47.0413833  56.2008903
  30.4250113  46.7543833  57.0158903  31.1130113  47.0623833  55.8708903
  30.4420113  47.0023833  56.2728903  17.4420113  46.7733833  61.5318903
  18.2930113  46.6933833  61.3588903  17.0850113  46.0913833  61.1198903
  17.5150113  46.6603833  61.4448903  16.2090113  53.4983833  62.7688903
  15.5360113  53.0003833  62.5238903  16.6120113  53.6833833  62.0178903
  16.1690113  53.4523833  62.6218903  15.7590113  40.4483833  65.0648903
  16.6020113  40.6683833  65.0218903  15.3700113  41.0213833  64.5338903
  15.8260113  40.5653833  64.9798903  32.5400113  51.5503833  70.4548903
  31.8580113  51.8603833  70.0078903  32.1710113  51.0923833  71.0998903
  32.3840113  51.5283833  70.4838903  28.2010113  43.5783833  55.7858903
  27.9810113  44.3093833  55.3638903  27.7530113  43.6293833  56.5328903
  28.1020113  43.6933833  55.8338903  19.8100113  46.7803833  59.7668903
  20.5230113  47.2753833  59.8568903  20.0320113  46.2133833  59.1408903
  19.9480113  46.7693833  59.6878903  13.9660113  48.4233833  63.0868903
  13.2990113  48.9113833  63.3628903  14.6460113  48.9683833  63.1158903
  13.9680113  48.5753833  63.1318903  21.6130113  42.1333833  73.1828903
  21.1290113  42.7103833  73.6248903  21.5850113  42.4283833  72.3618903
  21.5370113  42.2623833  73.1268903  32.7110113  42.8173833  67.7948903
  32.9260113  42.0173833  67.5188903  31.8610113  42.8773833  67.6058903
  32.6170113  42.7083833  67.7258903  14.0320113  45.1073833  58.1898903
  13.8470113  44.2683833  58.3418903  14.6910113  45.0713833  57.6198903
  14.1020113  44.9783833  58.1278903  24.3330113  50.4833833  62.0938903
  23.8100113  51.1173833  61.8008903  24.6430113  50.1193833  61.3648903
  24.3010113  50.5233833  61.9428903  14.2040113  49.2713833  57.7648903
  14.7560113  49.8403833  58.1288903  13.9720113  48.7563833  58.4298903
  14.2510113  49.2793833  57.9168903  18.4080113  48.2713833  64.8538903
  18.8750113  48.5603833  65.5318903  18.9800113  47.7933833  64.3998903
  18.5620113  48.2433833  64.8868903  26.8440113  40.2853833  62.5908903
  27.1880113  40.4373833  63.3778903  26.3910113  39.5473833  62.7038903
  26.8280113  40.1983833  62.7238903  14.0340113  47.7203833  55.3928903
  14.7900113  47.2883833  55.4508903  14.0490113  48.2523833  56.0838903
  14.1480113  47.7353833  55.5038903  14.9740113  45.9413833  63.3978903
  15.4050113  45.8123833  62.6508903  14.7690113  46.7893833  63.3718903
  15.0070113  46.0473833  63.2838903  21.3200113  39.5053833  57.0478903
  21.3180113  39.3883833  56.1828903  21.1390113  40.3533833  57.1398903
  21.2930113  39.6133833  56.9338903  30.3740113  51.9323833  68.5448903
  29.7030113  52.4463833  68.7628903  30.4370113  52.0323833  67.6808903
  30.2840113  52.0233833  68.4498903  19.0580113  49.4573833  61.6798903
  19.1840113  50.3003833  61.8668903  19.7260113  49.0583833  62.0758903
  19.1760113  49.5233833  61.7658903  17.1880113  42.9403833  71.5418903
  16.6520113  42.4343833  72.0098903  17.2080113  42.5503833  70.7618903
  17.1110113  42.8073833  71.4958903  17.6730113  42.3373833  56.6818903
  17.5450113  41.8893833  57.4198903  17.0910113  41.9953833  56.1298903
  17.5680113  42.2203833  56.7098903  17.8400113  44.1673833  63.2808903
  17.0590113  44.1083833  62.8978903  17.9120113  43.4153833  63.7178903
  17.7350113  44.0483833  63.2888903  18.2700113  43.9043833  66.7488903
  18.2950113  43.2293833  66.1978903  17.6240113  44.4003833  66.4368903
  18.1790113  43.8773833  66.6218903  28.1650113  41.6173833  65.1448903
  27.5030113  41.9453833  65.6078903  28.3520113  42.2513833  64.5758903
  28.0950113  41.7593833  65.1288903  22.3700113  52.6813833  66.1408903
  22.0930113  52.0403833  65.6178903  22.1620113  53.4073833  65.7028903
  22.2990113  52.6943833  65.9988903  26.3580113  39.5863833  58.6558903
  26.8480113  40.3033833  58.5788903  25.5680113  39.8473833  58.3928903
  26.3140113  39.7303833  58.6058903  16.0690113  45.2593833  72.3078903
  16.0320113  45.7603833  71.5938903  16.4000113  44.5073833  72.0128903
  16.1120113  45.2213833  72.1588903  27.6720113  47.4643833  70.5658903
  28.1560113  48.1823833  70.6638903  28.0660113  47.0373833  69.9148903
  27.8020113  47.5073833  70.4838903  21.9680113  50.3093833  71.7428903
  22.3220113  50.1313833  72.5198903  21.5320113  49.5803833  71.5438903
  21.9560113  50.1753833  71.8288903  22.9400113  41.0563833  64.3808903
  23.4200113  41.7553833  64.5888903  23.3130113  40.4093833  64.8318903
  23.0660113  41.0643833  64.4778903  25.1290113  44.2253833  56.6548903
  25.1210113  44.9473833  56.1648903  24.4900113  44.3603833  57.2318903
  25.0340113  44.3523833  56.6678903  30.1010113  48.0953833  60.6358903
  30.4570113  47.7453833  61.3508903  30.0930113  47.4343833  60.0658903
  30.1530113  47.9453833  60.6568903  26.1460113  51.1613833  64.4798903
  25.5430113  50.8653833  63.9228903  26.6910113  51.6133833  63.9708903
  26.1370113  51.1843833  64.3218903  26.1590113  48.0123833  63.8798903
  25.3620113  48.2363833  64.1538903  26.4170113  47.4183833  64.4648903
  26.0790113  47.9573833  64.0068903  20.0510113  52.8243833  58.3278903
  19.9040113  52.0483833  58.6988903  20.7400113  52.6773833  57.8128903
  20.1310113  52.6873833  58.3068903  19.7220113  36.5673833  56.3158903
  19.8190113  36.4603833  57.1768903  19.0140113  37.0733833  56.2508903
  19.6320113  36.6263833  56.4338903  22.3430113  52.3403833  56.7298903
  22.9650113  52.5033833  57.3198903  22.3790113  53.0313833  56.1978903
  22.4400113  52.4663833  56.7388903  29.4190113  46.0103833  68.7258903
  29.4740113  46.1353833  67.8638903  30.1720113  46.3303833  69.0278903
  29.5380113  46.0753833  68.6428903  25.6100113  51.3593833  73.0028903
  25.7740113  51.6423833  73.8118903  25.8730113  52.0203833  72.4978903
  25.6730113  51.4993833  73.0478903  30.4510113  36.3083833  71.7128903
  29.8140113  35.9083833  71.2708903  30.4770113  35.8773833  72.4708903
  30.3610113  36.1863833  71.7588903  16.8440113  44.8743833  57.5588903
  17.1680113  44.0953833  57.3368903  17.4900113  45.2423833  58.0138903
  16.9870113  44.8133833  57.5928903  25.1500113  45.8163833  68.3258903
  24.9950113  46.4263833  68.9298903  25.6840113  45.2583833  68.7318903
  25.2060113  45.8243833  68.4748903  13.8410113  36.5353833  58.5268903
  13.9700113  35.8273833  58.0348903  13.4740113  36.2173833  59.2518903
  13.8060113  36.3833833  58.5618903  23.5340113  44.2163833  58.9838903
  23.5930113  44.8663833  59.5628903  23.3450113  43.5203833  59.4748903
  23.5150113  44.2093833  59.1418903  28.7600113  48.5453833  64.8528903
  28.2810113  48.8433833  64.1868903  28.4040113  47.7693833  65.0308903
  28.6370113  48.4743833  64.7808903  18.0300113  38.7333833  55.4958903
  17.5190113  38.7863833  54.7898903  18.8140113  38.9733833  55.1998903
  18.0700113  38.7763833  55.3478903  22.7570113  46.2633833  63.4148903
  21.9100113  46.0693833  63.4958903  23.0810113  46.0983833  64.2078903
  22.6790113  46.2103833  63.5438903  19.5090113  52.9933833  54.3008903
  19.9480113  52.2963833  54.5888903  19.7160113  53.6173833  54.8738903
  19.6050113  52.9823833  54.4278903  16.6050113  45.9563833  65.7308903
  17.3270113  46.4443833  65.6938903  16.3350113  45.9263833  64.9018903
  16.6720113  46.0243833  65.6028903  19.8350113  41.1273833  62.4658903
  20.6810113  40.9373833  62.5638903  19.4650113  40.3503833  62.3278903
  19.9050113  40.9843833  62.4598903  32.4520113  52.7113833  56.7928903
  33.1460113  52.2443833  56.5448903  31.9130113  52.1133833  57.1298903
  32.4750113  52.5533833  56.8058903  14.6560113  42.4653833  59.1208903
  15.1450113  42.1733833  59.7818903  14.7850113  41.8723833  58.4938903
  14.7470113  42.3343833  59.1258903  29.6910113  45.4873833  65.9718903
  29.6840113  44.7113833  66.3698903  28.8500113  45.7213833  65.9648903
  29.5660113  45.4073833  66.0298903  19.1810113  43.8993833  54.6068903
  18.5710113  43.4943833  55.0808903  18.7950113  44.0173833  53.8338903
  19.0340113  43.8563833  54.5628903  16.0000113  47.0083833  70.0088903
  15.5790113  46.4903833  69.4478903  15.6480113  47.7943833  69.8658903
  15.8860113  47.0483833  69.9048903  30.9470113  45.5583833  63.4088903
  30.6610113  45.9593833  64.1288903  31.8070113  45.4963833  63.5358903
  31.0320113  45.6083833  63.5338903  20.6360113  42.3603833  57.3168903
  20.9080113  43.1863833  57.3838903  19.7730113  42.4353833  57.2208903
  20.5490113  42.4933833  57.3118903  28.6090113  39.4823833  71.9488903
  28.0840113  39.9413833  72.4728903  28.2480113  38.6873833  71.9428903
  28.4780113  39.4323833  72.0248903  14.1160113  38.3303833  63.8528903
  14.1600113  38.6743833  63.0518903  14.8710113  38.5673833  64.2198903
  14.2340113  38.4163833  63.7888903  32.0780113  51.1913833  63.9378903
  32.3680113  51.4483833  63.1568903  32.7730113  51.2873833  64.4568903
  32.2240113  51.2433833  63.8988903  27.1010113  43.0513833  72.0248903
  27.1740113  43.1553833  72.8878903  26.4670113  43.6093833  71.8038903
  27.0180113  43.1493833  72.1198903  29.3690113  43.3703833  70.3898903
  29.6880113  44.1563833  70.5928903  28.9990113  43.1003833  71.1328903
  29.3620113  43.4463833  70.5298903  28.6830113  49.7943833  55.9198903
  29.0170113  48.9883833  55.9548903  27.9280113  49.7223833  56.3498903
  28.6210113  49.6643833  55.9888903  29.1650113  41.6283833  61.5788903
  28.4200113  41.3053833  61.8968903  29.1670113  42.4543833  61.8588903
  29.0550113  41.7023833  61.6668903  32.0670113  43.9123833  73.1248903
  32.0150113  43.5713833  72.3238903  32.8040113  44.3793833  73.1028903
  32.1680113  43.9313833  73.0028903  31.6050113  47.5883833  69.3308903
  32.2330113  47.0393833  69.0748903  31.5440113  48.1533833  68.6688903
  31.6890113  47.5913833  69.1948903  26.0570113  47.6693833  55.3228903
  26.7410113  47.1553833  55.1538903  25.6400113  47.7153833  54.5578903
  26.0960113  47.6003833  55.1848903  20.7390113  48.8193833  66.6268903
  20.4410113  49.4113833  67.1938903  20.7940113  49.2613833  65.8778903
  20.7030113  48.9723833  66.5998903  18.7180113  47.7693833  70.0248903
  17.9120113  47.4793833  70.1918903  18.6290113  48.6373833  70.0308903
  18.5860113  47.8543833  70.0498903  28.0770113  37.9583833  69.0398903
  28.8210113  38.4103833  68.9768903  27.5110113  38.4283833  68.5708903
  28.1040113  38.0953833  68.9618903  23.2550113  45.2423833  66.1178903
  23.7310113  45.6163833  66.7458903  22.4320113  45.3763833  66.3768903
  23.2040113  45.3173833  66.2488903  19.9650113  40.8453833  68.8588903
  20.1260113  40.1013833  69.2858903  19.9200113  40.5963833  68.0238903
  19.9820113  40.6983833  68.7988903  22.5190113  52.6353833  61.3458903
  23.0650113  53.3143833  61.3998903  22.1690113  52.7173833  60.5508903
  22.5480113  52.7483833  61.2358903  29.3620113  35.9383833  66.7098903
  29.0820113  36.7633833  66.6658903  30.0780113  35.9913833  67.2058903
  29.4270113  36.0683833  66.7768903  21.7170113  36.6533833  68.7388903
  22.4220113  36.9733833  68.3368903  21.9580113  35.8463833  68.9658903
  21.8560113  36.5813833  68.7128903  20.7020113  50.8633833  64.7348903
  20.0780113  51.4453833  64.5528903  20.9500113  50.5773833  63.9488903
  20.6460113  50.9073833  64.5918903  25.0110113  47.4973833  71.7238903
  25.7680113  47.7833833  71.3978903  24.4640113  47.5493833  71.0458903
  25.0420113  47.5473833  71.5748903  28.9200113  50.0473833  70.2278903
  29.2660113  50.3173833  70.9818903  29.2140113  50.6293833  69.6478903
  29.0150113  50.1733833  70.2538903  30.7830113  42.1933833  55.5668903
  31.1610113  42.8703833  55.1668903  29.9410113  42.4173833  55.5978903
  30.7140113  42.3263833  55.5118903  22.2960113  45.6393833  54.6498903
  21.4910113  45.4623833  54.3648903  22.2630113  46.4903833  54.8418903
  22.1720113  45.7383833  54.6368903  18.2260113  41.7063833  64.7998903
  18.6660113  41.6033833  64.0538903  18.7710113  41.3933833  65.4048903
  18.3710113  41.6453833  64.7788903  26.2420113  40.8083833  70.3918903
  25.5940113  41.2783833  70.7398903  26.8070113  40.7193833  71.0508903
  26.2300113  40.8643833  70.5408903  25.9300113  42.3453833  66.6898903
  26.2320113  42.7653833  67.3928903  25.9660113  41.5053833  66.9218903
  25.9800113  42.2833833  66.8278903  23.3550113  52.5123833  70.6148903
  23.8330113  51.9123833  70.1988903  23.0040113  52.0693833  71.2798903
  23.3740113  52.3583833  70.6518903  28.4780113  41.7923833  58.9418903
  28.6850113  41.5913833  59.7658903  29.2340113  42.0603833  58.5998903
  28.6200113  41.8023833  59.0128903  21.7730113  36.6913833  64.8468903
  20.9470113  36.5423833  65.0838903  21.7330113  36.7263833  63.9758903
  21.6450113  36.6743833  64.7528903  29.9430113  45.8193833  58.7958903
  30.4190113  45.0903833  58.7478903  29.1220113  45.5333833  58.7198903
  29.8920113  45.6693833  58.7768903  23.4140113  47.7313833  69.6348903
  22.6190113  47.6673833  69.9858903  23.4850113  48.5783833  69.4398903
  23.3070113  47.8463833  69.6578903  14.3380113  37.0893833  70.8818903
  14.1980113  37.8843833  70.5508903  13.5520113  36.8463833  71.1708903
  14.2010113  37.1713833  70.8758903  19.2440113  53.9383833  64.9518903
  19.2550113  53.9973833  65.8218903  18.8190113  53.1913833  64.8018903
  19.1830113  53.8363833  65.0578903  17.4020113  39.8333833  58.1068903
  17.5280113  39.5043833  57.3088903  16.5900113  39.5843833  58.3058903
  17.3010113  39.7483833  58.0188903  26.1590113  46.9863833  61.1508903
  26.2350113  47.3273833  61.9498903  26.3280113  46.1393833  61.2718903
  26.1950113  46.9113833  61.2868903  23.6810113  46.2603833  60.7158903
  23.3830113  45.9453833  61.4728903  24.3760113  46.7333833  60.9508903
  23.7400113  46.2833833  60.8628903  23.9030113  50.3783833  68.7428903
  24.5900113  50.2643833  69.2678903  24.0370113  51.1693833  68.3988903
  24.0240113  50.4783833  68.7698903  32.0790113  42.9873833  70.5538903
  31.2240113  42.8653833  70.6798903  32.2320113  42.5923833  69.7908903
  31.9750113  42.9103833  70.4598903  26.5920113  43.6523833  69.1298903
  26.3370113  42.9333833  69.5518903  27.4130113  43.7683833  69.3998903
  26.6760113  43.5633833  69.2318903  16.0080113  53.4363833  70.3938903
  15.3540113  52.8673833  70.4918903  15.6330113  54.2093833  70.5448903
  15.8560113  53.4663833  70.4308903  24.5260113  44.8423833  72.3168903
  24.8490113  45.5283833  71.8848903  23.8220113  45.1653833  72.7188903
  24.4690113  44.9913833  72.3118903  27.6100113  53.2163833  63.2458903
  27.1590113  53.8593833  63.6248903  28.3180113  53.1373833  63.7508903
  27.6480113  53.2993833  63.3768903  24.3110113  48.3063833  66.1758903
  23.6170113  48.7083833  66.5188903  24.9880113  48.7393833  66.5148903
  24.3080113  48.4293833  66.2768903  29.6880113  50.8993833  72.7558903
  30.4640113  50.5093833  72.8388903  29.2190113  50.5633833  73.4108903
  29.7330113  50.7923833  72.8648903  17.3790113  41.8443833  68.5228903
  17.7540113  42.4633833  68.0358903  18.0530113  41.3703833  68.8078903
  17.5340113  41.8663833  68.4928903  15.1540113  40.2923833  67.7978903
  15.2310113  40.1233833  66.9448903  15.9000113  40.6983833  67.9948903
  15.2750113  40.3273833  67.7008903  30.7130113  42.9323833  58.2378903
  30.8160113  42.8743833  57.3738903  31.4540113  42.6003833  58.5558903
  30.8380113  42.8753833  58.1568903  17.7080113  37.7023833  70.2088903
  17.6270113  36.8583833  70.4148903  17.3940113  37.7463833  69.3958903
  17.6500113  37.5843833  70.1188903  24.6330113  49.8973833  59.3448903
  24.4280113  50.7303833  59.1858903  23.8580113  49.5153833  59.4668903
  24.4880113  49.9643833  59.3398903  29.8150113  43.0783833  67.5938903
  29.8130113  42.2153833  67.7178903  29.8820113  43.4023833  68.4008903
  29.8250113  42.9983833  67.7308903  14.5510113  45.5183833  68.0218903
  14.8710113  45.7373833  67.2408903  14.4510113  44.6533833  67.9668903
  14.5830113  45.4233833  67.8988903  16.0070113  41.4543833  54.6398903
  15.3350113  41.4683833  55.1958903  16.1020113  40.6063833  54.4558903
  15.9220113  41.3313833  54.6948903  25.6940113  37.8783833  71.3758903
  25.7860113  38.5903833  71.8698903  25.0570113  37.4333833  71.7728903
  25.6130113  37.9173833  71.5078903  24.6880113  38.0683833  62.2298903
  23.9880113  38.5863833  62.1738903  24.7260113  37.6883833  61.4458903
  24.5900113  38.0893833  62.1058903  19.9950113  50.1593833  55.7538903
  20.4360113  50.2393833  56.5018903  19.1900113  49.9433833  56.0118903
  19.9410113  50.1393833  55.9028903  28.2860113  38.5843833  65.0298903
  29.1410113  38.6833833  65.1748903  27.9170113  39.1373833  65.5948903
  28.3580113  38.6813833  65.1348903  19.3140113  44.8103833  69.4068903
  18.9180113  45.5843833  69.4818903  18.9080113  44.4373833  68.7308903
  19.1960113  44.8693833  69.3178903  28.5900113  43.8643833  63.5208903
  29.2560113  44.4053833  63.6808903  28.2450113  44.1753833  62.7818903
  28.6370113  43.9903833  63.4358903  28.9030113  51.9303833  59.3278903
  28.7290113  51.2763833  59.8778903  29.6160113  51.6593833  58.9048903
  28.9830113  51.7933833  59.3468903  17.3240113  49.2293833  56.3548903
  17.0800113  48.9223833  57.1348903  17.2910113  48.5263833  55.8388903
  17.2830113  49.0803833  56.3938903  20.1430113  47.4743833  55.0978903
  19.3250113  47.2063833  55.2378903  20.1150113  48.3263833  55.2828903
  20.0180113  47.5613833  55.1458903  19.7430113  37.7873833  66.8568903
  18.8790113  37.8713833  66.9368903  19.9630113  37.2733833  67.5258903
  19.6480113  37.7243833  66.9678903  31.7610113  36.4223833  68.1858903
  31.7090113  36.3783833  69.0558903  32.4480113  35.9193833  67.9958903
  31.8550113  36.3423833  68.2858903  26.5780113  49.3833833  67.0188903
  26.7840113  49.6843833  67.8108903  26.5170113  50.1053833  66.5338903
  26.5990113  49.5343833  67.0638903  26.1120113  53.5973833  71.2648903
  25.3590113  53.5793833  70.8238903  26.2800113  54.4493833  71.3488903
  26.0260113  53.7203833  71.2118903  21.3490113  42.8643833  70.4348903
  21.0270113  42.2883833  69.8648903  20.9900113  43.6193833  70.1888903
  21.2490113  42.8903833  70.3148903  22.1450113  36.1163833  55.0618903
  22.2230113  36.3633833  54.2288903  21.4020113  36.4933833  55.3198903
  22.0470113  36.2083833  54.9768903  31.3900113  48.0223833  66.4768903
  31.3580113  47.1603833  66.3418903  30.6970113  48.3243833  66.0428903
  31.2830113  47.9393833  66.3928903  19.7840113  53.2203833  70.6828903
  19.8250113  53.3463833  71.5458903  20.4350113  52.6603833  70.5268903
  19.8860113  53.1563833  70.7878903  29.4950113  51.2823833  65.2738903
  30.0220113  51.1993833  64.5828903  29.1040113  50.5043833  65.3278903
  29.5150113  51.1553833  65.1798903  16.9630113  37.8703833  67.5048903
  16.6200113  37.1033833  67.2708903  16.2680113  38.3943833  67.5688903
  16.8100113  37.8343833  67.4798903  26.0090113  36.7263833  64.4818903
  26.6790113  37.2703833  64.6088903  25.5060113  37.1503833  63.9088903
  26.0340113  36.8693833  64.4158903  17.3770113  51.6033833  72.0428903
  17.9720113  52.0343833  72.5148903  17.0130113  52.2273833  71.5538903
  17.4110113  51.7593833  72.0398903  25.3680113  42.5343833  61.9748903
  25.9190113  41.9273833  62.2748903  24.9430113  42.7973833  62.6898903
  25.3870113  42.4833833  62.1238903  15.6160113  41.1843833  61.4608903
  15.2480113  41.4863833  62.1918903  16.1500113  40.5553833  61.7448903
  15.6400113  41.1363833  61.6108903  15.3040113  49.5923833  68.9718903
  14.7300113  50.0083833  69.4808903  16.0370113  50.0573833  69.0668903
  15.3280113  49.7223833  69.0608903  27.3380113  44.3653833  58.5368903
  27.4060113  43.5153833  58.7178903  26.5150113  44.4513833  58.2588903
  27.2260113  44.2523833  58.5228903  17.0900113  52.8593833  57.7468903
  16.9450113  53.0153833  56.9008903  17.9560113  52.9383833  57.8248903
  17.1970113  52.8943833  57.6338903  21.2570113  45.2563833  57.4748903
  21.3570113  45.3953833  56.6198903  22.0750113  45.1963833  57.7708903
  21.3920113  45.2673833  57.3918903  30.4170113  53.3203833  54.9548903
  31.0540113  53.1863833  55.5358903  30.0760113  52.5263833  54.8378903
  30.4610113  53.1833833  55.0228903  30.6120113  45.7383833  71.6878903
  31.2460113  45.5683833  72.2618903  31.0290113  46.1413833  71.0358903
  30.7670113  45.7733833  71.6768903  26.4920113  49.5853833  57.2768903
  26.2410113  49.4573833  58.1028903  26.1750113  48.8903833  56.8558903
  26.4080113  49.4643833  57.3368903  31.2370113  40.3023833  72.4258903
  31.0410113  40.9463833  72.9808903  30.5150113  39.8123833  72.4178903
  31.1020113  40.3253833  72.5068903  31.1360113  41.2433833  65.3968903
  30.3030113  41.4933833  65.3248903  31.0800113  40.4033833  65.6258903
  31.0050113  41.1563833  65.4198903  20.3960113  38.2313833  70.5908903
  20.6300113  37.6553833  69.9778903  19.5540113  38.0503833  70.7318903
  20.3060113  38.1193833  70.5208903  28.0230113  45.8493833  73.0428903
  28.8940113  45.8133833  73.0068903  27.8040113  46.2693833  72.3108903
  28.1200113  45.9053833  72.9298903  17.7770113  51.6743833  64.2238903
  17.6980113  50.8643833  63.9078903  17.3330113  52.1613833  63.6518903
  17.7000113  51.6263833  64.0928903  23.3780113  47.7933833  56.7068903
  24.0950113  47.4463833  56.3508903  23.3440113  48.5933833  56.3588903
  23.4790113  47.8603833  56.6028903  15.3490113  53.9183833  67.8048903
  15.8420113  53.8623833  68.5228903  15.5370113  53.1853833  67.3698903
  15.4500113  53.8013833  67.8468903  14.4650113  47.4903833  41.0726493
  14.0240113  47.6083833  41.8156493  14.1820113  46.7153833  40.7876493
  14.3580113  47.3933833  41.1406493  30.7400113  50.7913833  38.5876493
  31.4410113  50.2723833  38.5836493  30.1530113  50.3463833  38.1186493
  30.7570113  50.6483833  38.5176493  14.2080113  41.2823833  37.5796493
  13.4300113  41.4443833  37.2196493  14.2470113  40.4113833  37.6016493
  14.0990113  41.1773833  37.5296493  17.3470113  46.5453833  36.2516493
  16.9550113  46.1743833  35.5656493  17.2670113  45.9473833  36.8806493
  17.2770113  46.4023833  36.2426493  16.9740113  48.1863833  40.1516493
  17.5820113  48.0163833  40.7546493  16.2230113  48.0463833  40.5726493
  16.9530113  48.1403833  40.3026493  21.2560113  37.5213833  40.1006493
  21.1860113  38.1983833  39.5546493  21.9970113  37.1333833  39.8516493
  21.3550113  37.5643833  39.9826493  15.8650113  51.2773833  36.2286493
  16.3320113  51.3613833  35.4966493  16.3200113  50.6993833  36.6976493
  16.0010113  51.2043833  36.1896493  14.4050113  50.2253833  47.3276493
  14.5340113  49.9453833  48.1436493  13.7950113  49.6843833  47.0186493
  14.3340113  50.1043833  47.4026493  20.9790113  47.7503833  52.3946493
  20.7430113  47.7473833  53.2346493  20.2310113  47.6023833  51.9706493
  20.8330113  47.7273833  52.4556493  15.8510113  44.7463833  41.5296493
  15.3890113  44.3543833  40.9026493  16.5510113  44.2333833  41.6216493
  15.8860113  44.6133833  41.4506493  20.3590113  40.3563833  46.8766493
  21.0370113  40.3743833  46.3276493  20.3140113  39.5203833  47.1216493
  20.4520113  40.2353833  46.8316493  20.9610113  50.9423833  49.6576493
  21.0990113  51.7023833  49.2506493  21.7520113  50.5773833  49.6846493
  21.0980113  51.0013833  49.6016493  17.8520113  42.8463833  41.5526493
  18.6690113  42.6593833  41.7956493  17.3750113  42.2323833  41.9486493
  17.9020113  42.7283833  41.6476493  22.1130113  48.2763833  40.3736493
  22.4440113  47.6323833  40.8596493  22.3530113  48.0653833  39.5626493
  22.1970113  48.1503833  40.3256493  18.4490113  37.9403833  40.8186493
  18.1530113  38.4413833  40.1686493  19.3160113  38.0183833  40.7616493
  18.5330113  38.0263833  40.7146493  21.4280113  37.0823833  43.0416493
  21.5010113  37.9423833  43.1706493  21.3900113  37.0073833  42.1736493
  21.4330113  37.1983833  42.9326493  14.3070113  42.5073833  44.5426493
  14.0510113  43.3383833  44.4676493  13.6430113  42.1243833  44.9596493
  14.1710113  42.5733833  44.5936493  14.2170113  52.2173833  42.4426493
  13.6250113  52.7753833  42.1296493  14.6430113  51.9483833  41.7306493
  14.1930113  52.2593833  42.2916493  20.0570113  50.0613833  39.9226493
  19.4780113  49.7863833  40.5146493  20.6810113  49.4523833  39.9476493
  20.0640113  49.9313833  40.0136493  26.2000113  52.3493833  37.4446493
  26.9270113  52.8213833  37.5466493  26.4290113  51.5553833  37.7246493
  26.3420113  52.3023833  37.5016493  24.3680113  52.7413833  39.4346493
  24.5820113  53.2683833  40.0966493  25.1350113  52.5673833  39.0556493
  24.5130113  52.7933833  39.4766493  17.3360113  37.3243833  45.0336493
  16.8150113  36.6963833  44.7256493  17.9270113  36.8873833  45.5046493
  17.3470113  37.1663833  45.0576493  20.6420113  39.4573833  54.3316493
  20.7590113  39.0033833  53.5956493  20.9300113  40.2553833  54.1286493
  20.7020113  39.5083833  54.1926493  15.7620113  50.8873833  40.3736493
  16.4180113  50.3123833  40.3886493  16.1510113  51.6363833  40.1526493
  15.9170113  50.9123833  40.3436493  26.8070113  52.7513833  47.7396493
  27.5510113  53.2073833  47.7296493  26.6860113  52.5373833  46.9026493
  26.8990113  52.7873833  47.6146493  16.3750113  39.0543833  53.3156493
  15.5970113  38.6643833  53.2436493  16.8660113  38.6423833  52.7246493
  16.3320113  38.9353833  53.2176493  16.5800113  49.3743833  43.8736493
  17.0030113  49.0183833  43.1996493  16.9040113  48.9523833  44.5656493
  16.6900113  49.2593833  43.8766493  19.8110113  52.2263833  43.1696493
  20.6550113  52.3303833  42.9746493  19.5140113  53.0443833  43.2376493
  19.8920113  52.3623833  43.1506493  24.3400113  41.9623833  36.3776493
  24.6210113  42.7503833  36.6266493  23.5640113  42.1273833  36.0146493
  24.2670113  42.1033833  36.3606493  28.3810113  53.9363833  37.8446493
  29.0460113  53.7883833  37.2996493  28.7410113  53.8533833  38.6346493
  28.5330113  53.9023833  37.8806493  18.8090113  53.4453833  48.9096493
  19.1010113  53.3783833  49.7296493  18.1830113  52.8403833  48.8646493
  18.7600113  53.3463833  49.0246493  13.7230113  39.6023833  50.9016493
  13.7190113  40.1893833  51.5476493  14.3170113  39.9143833  50.3446493
  13.8100113  39.7353833  50.9146493  26.0610113  49.9363833  51.4436493
  26.0270113  50.3183833  52.2276493  26.9150113  49.8943833  51.2726493
  26.1820113  49.9863833  51.5346493  23.1990113  50.1333833  36.1936493
  23.0180113  50.6783833  36.8506493  23.9650113  50.4233833  35.8926493
  23.2850113  50.2573833  36.2466493  14.6600113  39.1973833  39.8166493
  14.5460113  38.3333833  39.8476493  14.1850113  39.4913833  40.4866493
  14.5730113  39.1133833  39.9196493  16.8020113  51.6073833  48.0316493
  16.1040113  51.0993833  48.1576493  17.0620113  51.4023833  47.2236493
  16.7370113  51.5023833  47.9306493  24.5130113  53.1003833  48.9416493
  25.2810113  53.0203833  48.5356493  23.9300113  52.9793833  48.3036493
  24.5400113  53.0703833  48.7876493  30.7900113  53.7033833  41.8426493
  30.3350113  54.4203833  42.0436493  30.1760113  53.1323833  41.6006493
  30.6320113  53.7253833  41.8366493  22.5620113  39.7133833  42.9746493
  22.6360113  40.2813833  42.3166493  22.6830113  40.2053833  43.6846493
  22.5900113  39.8703833  42.9826493  18.1630113  50.4583833  50.5986493
  19.0040113  50.5213833  50.3766493  18.1260113  50.8553833  51.3746493
  18.2820113  50.5263833  50.6806493  17.1700113  35.5363833  41.3226493
  17.7060113  36.2243833  41.3126493  17.1730113  35.2623833  40.4946493
  17.2490113  35.5973833  41.1986493  20.1260113  45.9693833  45.3476493
  20.2980113  45.7593833  46.1766493  19.4710113  45.4353833  45.1316493
  20.0550113  45.8593833  45.4386493  20.8760113  45.9073833  47.9376493
  20.9290113  46.7543833  48.1396493  20.5910113  45.5373833  48.6746493
  20.8420113  45.9773833  48.0756493  13.6970113  50.2783833  54.1486493
  14.4530113  50.6273833  54.4066493  13.8740113  49.4253833  54.0916493
  13.8350113  50.2033833  54.1786493  17.6180113  39.3463833  42.9766493
  17.8900113  38.9163833  42.2686493  17.4420113  38.7103833  43.5476493
  17.6320113  39.1893833  42.9566493  30.3060113  47.0413833  37.1946493
  30.4250113  46.7543833  38.0096493  31.1130113  47.0623833  36.8646493
  30.4420113  47.0023833  37.2666493  17.4420113  46.7733833  42.5256493
  18.2930113  46.6933833  42.3526493  17.0850113  46.0913833  42.1136493
  17.5150113  46.6603833  42.4386493  16.2090113  53.4983833  43.7626493
  15.5360113  53.0003833  43.5176493  16.6120113  53.6833833  43.0116493
  16.1690113  53.4523833  43.6156493  15.7590113  40.4483833  46.0586493
  16.6020113  40.6683833  46.0156493  15.3700113  41.0213833  45.5276493
  15.8260113  40.5653833  45.9736493  32.5400113  51.5503833  51.4486493
  31.8580113  51.8603833  51.0016493  32.1710113  51.0923833  52.0936493
  32.3840113  51.5283833  51.4776493  19.8100113  46.7803833  40.7606493
  20.5230113  47.2753833  40.8506493  20.0320113  46.2133833  40.1346493
  19.9480113  46.7693833  40.6816493  13.9660113  48.4233833  44.0806493
  13.2990113  48.9113833  44.3566493  14.6460113  48.9683833  44.1096493
  13.9680113  48.5753833  44.1256493  21.6130113  42.1333833  54.1766493
  21.1290113  42.7103833  54.6186493  21.5850113  42.4283833  53.3556493
  21.5370113  42.2623833  54.1206493  14.0320113  45.1073833  39.1836493
  13.8470113  44.2683833  39.3356493  14.6910113  45.0713833  38.6136493
  14.1020113  44.9783833  39.1216493  14.2040113  49.2713833  38.7586493
  14.7560113  49.8403833  39.1226493  13.9720113  48.7563833  39.4236493
  14.2510113  49.2793833  38.9106493  18.4080113  48.2713833  45.8476493
  18.8750113  48.5603833  46.5256493  18.9800113  47.7933833  45.3936493
  18.5620113  48.2433833  45.8806493  14.0340113  47.7203833  36.3866493
  14.7900113  47.2883833  36.4446493  14.0490113  48.2523833  37.0776493
  14.1480113  47.7353833  36.4976493  14.9740113  45.9413833  44.3916493
  15.4050113  45.8123833  43.6446493  14.7690113  46.7893833  44.3656493
  15.0070113  46.0473833  44.2776493  21.3200113  39.5053833  38.0416493
  21.3180113  39.3883833  37.1766493  21.1390113  40.3533833  38.1336493
  21.2930113  39.6133833  37.9276493  30.3740113  51.9323833  49.5386493
  29.7030113  52.4463833  49.7566493  30.4370113  52.0323833  48.6746493
  30.2840113  52.0233833  49.4436493  19.0580113  49.4573833  42.6736493
  19.1840113  50.3003833  42.8606493  19.7260113  49.0583833  43.0696493
  19.1760113  49.5233833  42.7596493  17.1880113  42.9403833  52.5356493
  16.6520113  42.4343833  53.0036493  17.2080113  42.5503833  51.7556493
  17.1110113  42.8073833  52.4896493  17.6730113  42.3373833  37.6756493
  17.5450113  41.8893833  38.4136493  17.0910113  41.9953833  37.1236493
  17.5680113  42.2203833  37.7036493  18.2700113  43.9043833  47.7426493
  18.2950113  43.2293833  47.1916493  17.6240113  44.4003833  47.4306493
  18.1790113  43.8773833  47.6156493  22.3700113  52.6813833  47.1346493
  22.0930113  52.0403833  46.6116493  22.1620113  53.4073833  46.6966493
  22.2990113  52.6943833  46.9926493  16.0690113  45.2593833  53.3016493
  16.0320113  45.7603833  52.5876493  16.4000113  44.5073833  53.0066493
  16.1120113  45.2213833  53.1526493  27.6720113  47.4643833  51.5596493
  28.1560113  48.1823833  51.6576493  28.0660113  47.0373833  50.9086493
  27.8020113  47.5073833  51.4776493  21.9680113  50.3093833  52.7366493
  22.3220113  50.1313833  53.5136493  21.5320113  49.5803833  52.5376493
  21.9560113  50.1753833  52.8226493  26.1460113  51.1613833  45.4736493
  25.5430113  50.8653833  44.9166493  26.6910113  51.6133833  44.9646493
  26.1370113  51.1843833  45.3156493  20.0510113  52.8243833  39.3216493
  19.9040113  52.0483833  39.6926493  20.7400113  52.6773833  38.8066493
  20.1310113  52.6873833  39.3006493  19.7220113  36.5673833  37.3096493
  19.8190113  36.4603833  38.1706493  19.0140113  37.0733833  37.2446493
  19.6320113  36.6263833  37.4276493  22.3430113  52.3403833  37.7236493
  22.9650113  52.5033833  38.3136493  22.3790113  53.0313833  37.1916493
  22.4400113  52.4663833  37.7326493  25.6100113  51.3593833  53.9966493
  25.7740113  51.6423833  54.8056493  25.8730113  52.0203833  53.4916493
  25.6730113  51.4993833  54.0416493  16.8440113  44.8743833  38.5526493
  17.1680113  44.0953833  38.3306493  17.4900113  45.2423833  39.0076493
  16.9870113  44.8133833  38.5866493  13.8410113  36.5353833  39.5206493
  13.9700113  35.8273833  39.0286493  13.4740113  36.2173833  40.2456493
  13.8060113  36.3833833  39.5556493  18.0300113  38.7333833  36.4896493
  17.5190113  38.7863833  35.7836493  18.8140113  38.9733833  36.1936493
  18.0700113  38.7763833  36.3416493  19.5090113  52.9933833  35.2946493
  19.9480113  52.2963833  35.5826493  19.7160113  53.6173833  35.8676493
  19.6050113  52.9823833  35.4216493  16.6050113  45.9563833  46.7246493
  17.3270113  46.4443833  46.6876493  16.3350113  45.9263833  45.8956493
  16.6720113  46.0243833  46.5966493  19.8350113  41.1273833  43.4596493
  20.6810113  40.9373833  43.5576493  19.4650113  40.3503833  43.3216493
  19.9050113  40.9843833  43.4536493  32.4520113  52.7113833  37.7866493
  33.1460113  52.2443833  37.5386493  31.9130113  52.1133833  38.1236493
  32.4750113  52.5533833  37.7996493  14.6560113  42.4653833  40.1146493
  15.1450113  42.1733833  40.7756493  14.7850113  41.8723833  39.4876493
  14.7470113  42.3343833  40.1196493  19.1810113  43.8993833  35.6006493
  18.5710113  43.4943833  36.0746493  18.7950113  44.0173833  34.8276493
  19.0340113  43.8563833  35.5566493  16.0000113  47.0083833  51.0026493
  15.5790113  46.4903833  50.4416493  15.6480113  47.7943833  50.8596493
  15.8860113  47.0483833  50.8986493  20.6360113  42.3603833  38.3106493
  20.9080113  43.1863833  38.3776493  19.7730113  42.4353833  38.2146493
  20.5490113  42.4933833  38.3056493  32.0780113  51.1913833  44.9316493
  32.3680113  51.4483833  44.1506493  32.7730113  51.2873833  45.4506493
  32.2240113  51.2433833  44.8926493  27.1010113  43.0513833  53.0186493
  27.1740113  43.1553833  53.8816493  26.4670113  43.6093833  52.7976493
  27.0180113  43.1493833  53.1136493  28.6830113  49.7943833  36.9136493
  29.0170113  48.9883833  36.9486493  27.9280113  49.7223833  37.3436493
  28.6210113  49.6643833  36.9826493  32.0670113  43.9123833  54.1186493
  32.0150113  43.5713833  53.3176493  32.8040113  44.3793833  54.0966493
  32.1680113  43.9313833  53.9966493  31.6050113  47.5883833  50.3246493
  32.2330113  47.0393833  50.0686493  31.5440113  48.1533833  49.6626493
  31.6890113  47.5913833  50.1886493  26.0570113  47.6693833  36.3166493
  26.7410113  47.1553833  36.1476493  25.6400113  47.7153833  35.5516493
  26.0960113  47.6003833  36.1786493  20.7390113  48.8193833  47.6206493
  20.4410113  49.4113833  48.1876493  20.7940113  49.2613833  46.8716493
  20.7030113  48.9723833  47.5936493  19.9650113  40.8453833  49.8526493
  20.1260113  40.1013833  50.2796493  19.9200113  40.5963833  49.0176493
  19.9820113  40.6983833  49.7926493  22.5190113  52.6353833  42.3396493
  23.0650113  53.3143833  42.3936493  22.1690113  52.7173833  41.5446493
  22.5480113  52.7483833  42.2296493  20.7020113  50.8633833  45.7286493
  20.0780113  51.4453833  45.5466493  20.9500113  50.5773833  44.9426493
  20.6460113  50.9073833  45.5856493  25.0110113  47.4973833  52.7176493
  25.7680113  47.7833833  52.3916493  24.4640113  47.5493833  52.0396493
  25.0420113  47.5473833  52.5686493  28.9200113  50.0473833  51.2216493
  29.2660113  50.3173833  51.9756493  29.2140113  50.6293833  50.6416493
  29.0150113  50.1733833  51.2476493  22.2960113  45.6393833  35.6436493
  21.4910113  45.4623833  35.3586493  22.2630113  46.4903833  35.8356493
  22.1720113  45.7383833  35.6306493  18.2260113  41.7063833  45.7936493
  18.6660113  41.6033833  45.0476493  18.7710113  41.3933833  46.3986493
  18.3710113  41.6453833  45.7726493  23.3550113  52.5123833  51.6086493
  23.8330113  51.9123833  51.1926493  23.0040113  52.0693833  52.2736493
  23.3740113  52.3583833  51.6456493  21.7730113  36.6913833  45.8406493
  20.9470113  36.5423833  46.0776493  21.7330113  36.7263833  44.9696493
  21.6450113  36.6743833  45.7466493  23.4140113  47.7313833  50.6286493
  22.6190113  47.6673833  50.9796493  23.4850113  48.5783833  50.4336493
  23.3070113  47.8463833  50.6516493  14.3380113  37.0893833  51.8756493
  14.1980113  37.8843833  51.5446493  13.5520113  36.8463833  52.1646493
  14.2010113  37.1713833  51.8696493  19.2440113  53.9383833  45.9456493
  19.2550113  53.9973833  46.8156493  18.8190113  53.1913833  45.7956493
  19.1830113  53.8363833  46.0516493  17.4020113  39.8333833  39.1006493
  17.5280113  39.5043833  38.3026493  16.5900113  39.5843833  39.2996493
  17.3010113  39.7483833  39.0126493  23.9030113  50.3783833  49.7366493
  24.5900113  50.2643833  50.2616493  24.0370113  51.1693833  49.3926493
  24.0240113  50.4783833  49.7636493  32.0790113  42.9873833  51.5476493
  31.2240113  42.8653833  51.6736493  32.2320113  42.5923833  50.7846493
  31.9750113  42.9103833  51.4536493  16.0080113  53.4363833  51.3876493
  15.3540113  52.8673833  51.4856493  15.6330113  54.2093833  51.5386493
  15.8560113  53.4663833  51.4246493  24.5260113  44.8423833  53.3106493
  24.8490113  45.5283833  52.8786493  23.8220113  45.1653833  53.7126493
  24.4690113  44.9913833  53.3056493  27.6100113  53.2163833  44.2396493
  27.1590113  53.8593833  44.6186493  28.3180113  53.1373833  44.7446493
  27.6480113  53.2993833  44.3706493  29.6880113  50.8993833  53.7496493
  30.4640113  50.5093833  53.8326493  29.2190113  50.5633833  54.4046493
  29.7330113  50.7923833  53.8586493  17.3790113  41.8443833  49.5166493
  17.7540113  42.4633833  49.0296493  18.0530113  41.3703833  49.8016493
  17.5340113  41.8663833  49.4866493  15.1540113  40.2923833  48.7916493
  15.2310113  40.1233833  47.9386493  15.9000113  40.6983833  48.9886493
  15.2750113  40.3273833  48.6946493  17.7080113  37.7023833  51.2026493
  17.6270113  36.8583833  51.4086493  17.3940113  37.7463833  50.3896493
  17.6500113  37.5843833  51.1126493  24.6330113  49.8973833  40.3386493
  24.4280113  50.7303833  40.1796493  23.8580113  49.5153833  40.4606493
  24.4880113  49.9643833  40.3336493  14.5510113  45.5183833  49.0156493
  14.8710113  45.7373833  48.2346493  14.4510113  44.6533833  48.9606493
  14.5830113  45.4233833  48.8926493  16.0070113  41.4543833  35.6336493
  15.3350113  41.4683833  36.1896493  16.1020113  40.6063833  35.4496493
  15.9220113  41.3313833  35.6886493  19.9950113  50.1593833  36.7476493
  20.4360113  50.2393833  37.4956493  19.1900113  49.9433833  37.0056493
  19.9410113  50.1393833  36.8966493  19.3140113  44.8103833  50.4006493
  18.9180113  45.5843833  50.4756493  18.9080113  44.4373833  49.7246493
  19.1960113  44.8693833  50.3116493  28.9030113  51.9303833  40.3216493
  28.7290113  51.2763833  40.8716493  29.6160113  51.6593833  39.8986493
  28.9830113  51.7933833  40.3406493  17.3240113  49.2293833  37.3486493
  17.0800113  48.9223833  38.1286493  17.2910113  48.5263833  36.8326493
  17.2830113  49.0803833  37.3876493  20.1430113  47.4743833  36.0916493
  19.3250113  47.2063833  36.2316493  20.1150113  48.3263833  36.2766493
  20.0180113  47.5613833  36.1396493  19.7430113  37.7873833  47.8506493
  18.8790113  37.8713833  47.9306493  19.9630113  37.2733833  48.5196493
  19.6480113  37.7243833  47.9616493  26.5780113  49.3833833  48.0126493
  26.7840113  49.6843833  48.8046493  26.5170113  50.1053833  47.5276493
  26.5990113  49.5343833  48.0576493  26.1120113  53.5973833  52.2586493
  25.3590113  53.5793833  51.8176493  26.2800113  54.4493833  52.3426493
  26.0260113  53.7203833  52.2056493  21.3490113  42.8643833  51.4286493
  21.0270113  42.2883833  50.8586493  20.9900113  43.6193833  51.1826493
  21.2490113  42.8903833  51.3086493  31.3900113  48.0223833  47.4706493
  31.3580113  47.1603833  47.3356493  30.6970113  48.3243833  47.0366493
  31.2830113  47.9393833  47.3866493  19.7840113  53.2203833  51.6766493
  19.8250113  53.3463833  52.5396493  20.4350113  52.6603833  51.5206493
  19.8860113  53.1563833  51.7816493  29.4950113  51.2823833  46.2676493
  30.0220113  51.1993833  45.5766493  29.1040113  50.5043833  46.3216493
  29.5150113  51.1553833  46.1736493  16.9630113  37.8703833  48.4986493
  16.6200113  37.1033833  48.2646493  16.2680113  38.3943833  48.5626493
  16.8100113  37.8343833  48.4736493  17.3770113  51.6033833  53.0366493
  17.9720113  52.0343833  53.5086493  17.0130113  52.2273833  52.5476493
  17.4110113  51.7593833  53.0336493  15.6160113  41.1843833  42.4546493
  15.2480113  41.4863833  43.1856493  16.1500113  40.5553833  42.7386493
  15.6400113  41.1363833  42.6046493  15.3040113  49.5923833  49.9656493
  14.7300113  50.0083833  50.4746493  16.0370113  50.0573833  50.0606493
  15.3280113  49.7223833  50.0546493  17.0900113  52.8593833  38.7406493
  16.9450113  53.0153833  37.8946493  17.9560113  52.9383833  38.8186493
  17.1970113  52.8943833  38.6276493  21.2570113  45.2563833  38.4686493
  21.3570113  45.3953833  37.6136493  22.0750113  45.1963833  38.7646493
  21.3920113  45.2673833  38.3856493  30.4170113  53.3203833  35.9486493
  31.0540113  53.1863833  36.5296493  30.0760113  52.5263833  35.8316493
  30.4610113  53.1833833  36.0166493  30.6120113  45.7383833  52.6816493
  31.2460113  45.5683833  53.2556493  31.0290113  46.1413833  52.0296493
  30.7670113  45.7733833  52.6706493  26.4920113  49.5853833  38.2706493
  26.2410113  49.4573833  39.0966493  26.1750113  48.8903833  37.8496493
  26.4080113  49.4643833  38.3306493  28.0230113  45.8493833  54.0366493
  28.8940113  45.8133833  54.0006493  27.8040113  46.2693833  53.3046493
  28.1200113  45.9053833  53.9236493  17.7770113  51.6743833  45.2176493
  17.6980113  50.8643833  44.9016493  17.3330113  52.1613833  44.6456493
  17.7000113  51.6263833  45.0866493  23.3780113  47.7933833  37.7006493
  24.0950113  47.4463833  37.3446493  23.3440113  48.5933833  37.3526493
  23.4790113  47.8603833  37.5966493  15.3490113  53.9183833  48.7986493
  15.8420113  53.8623833  49.5166493  15.5370113  53.1853833  48.3636493
  15.4500113  53.8013833  48.8406493  24.7870113  36.4343833  21.9394083
  24.5420113  36.9223833  21.2594083  25.6500113  36.3613833  21.8394083
  24.8780113  36.4953833  21.8244083  24.5960113  43.3503833  26.6104083
  24.0720113  43.9463833  26.9734083  24.9930113  42.9823833  27.2944083
  24.5770113  43.3843833  26.7654083  14.4650113  47.4903833  22.0664083
  14.0240113  47.6083833  22.8094083  14.1820113  46.7153833  21.7814083
  14.3580113  47.3933833  22.1344083  30.7400113  50.7913833  19.5814083
  31.4410113  50.2723833  19.5774083  30.1530113  50.3463833  19.1124083
  30.7570113  50.6483833  19.5114083  14.2080113  41.2823833  18.5734083
  13.4300113  41.4443833  18.2134083  14.2470113  40.4113833  18.5954083
  14.0990113  41.1773833  18.5234083  17.3470113  46.5453833  17.2454083
  16.9550113  46.1743833  16.5594083  17.2670113  45.9473833  17.8744083
  17.2770113  46.4023833  17.2364083  27.2670113  44.4173833  23.2864083
  27.3470113  44.4213833  22.4174083  26.6830113  43.7853833  23.4354083
  27.1920113  44.3243833  23.1804083  16.9740113  48.1863833  21.1454083
  17.5820113  48.0163833  21.7484083  16.2230113  48.0463833  21.5664083
  16.9530113  48.1403833  21.2964083  21.2560113  37.5213833  21.0944083
  21.1860113  38.1983833  20.5484083  21.9970113  37.1333833  20.8454083
  21.3550113  37.5643833  20.9764083  15.8650113  51.2773833  17.2224083
  16.3320113  51.3613833  16.4904083  16.3200113  50.6993833  17.6914083
  16.0010113  51.2043833  17.1834083  14.4050113  50.2253833  28.3214083
  14.5340113  49.9453833  29.1374083  13.7950113  49.6843833  28.0124083
  14.3340113  50.1043833  28.3964083  20.9790113  47.7503833  33.3884083
  20.7430113  47.7473833  34.2284083  20.2310113  47.6023833  32.9644083
  20.8330113  47.7273833  33.4494083  15.8510113  44.7463833  22.5234083
  15.3890113  44.3543833  21.8964083  16.5510113  44.2333833  22.6154083
  15.8860113  44.6133833  22.4444083  20.3590113  40.3563833  27.8704083
  21.0370113  40.3743833  27.3214083  20.3140113  39.5203833  28.1154083
  20.4520113  40.2353833  27.8254083  20.9610113  50.9423833  30.6514083
  21.0990113  51.7023833  30.2444083  21.7520113  50.5773833  30.6784083
  21.0980113  51.0013833  30.5954083  17.8520113  42.8463833  22.5464083
  18.6690113  42.6593833  22.7894083  17.3750113  42.2323833  22.9424083
  17.9020113  42.7283833  22.6414083  22.0560113  48.8273833  25.1564083
  22.4040113  48.0283833  25.1864083  22.7210113  49.3313833  24.9014083
  22.2060113  48.7833833  25.1234083  22.1130113  48.2763833  21.3674083
  22.4440113  47.6323833  21.8534083  22.3530113  48.0653833  20.5564083
  22.1970113  48.1503833  21.3194083  24.0810113  42.4073833  32.7064083
  23.2330113  42.3083833  32.5284083  24.1100113  43.1523833  33.1604083
  23.9600113  42.5033833  32.7474083  18.4490113  37.9403833  21.8124083
  18.1530113  38.4413833  21.1624083  19.3160113  38.0183833  21.7554083
  18.5330113  38.0263833  21.7084083  21.4280113  37.0823833  24.0354083
  21.5010113  37.9423833  24.1644083  21.3900113  37.0073833  23.1674083
  21.4330113  37.1983833  23.9264083  26.1010113  40.0083833  16.3344083
  25.6510113  40.6893833  16.6414083  26.2150113  39.5043833  17.0374083
  26.0520113  40.0343833  16.4834083  14.3070113  42.5073833  25.5364083
  14.0510113  43.3383833  25.4614083  13.6430113  42.1243833  25.9534083
  14.1710113  42.5733833  25.5874083  14.2170113  52.2173833  23.4364083
  13.6250113  52.7753833  23.1234083  14.6430113  51.9483833  22.7244083
  14.1930113  52.2593833  23.2854083  20.0570113  50.0613833  20.9164083
  19.4780113  49.7863833  21.5084083  20.6810113  49.4523833  20.9414083
  20.0640113  49.9313833  21.0074083  26.2000113  52.3493833  18.4384083
  26.9270113  52.8213833  18.5404083  26.4290113  51.5553833  18.7184083
  26.3420113  52.3023833  18.4954083  24.3680113  52.7413833  20.4284083
  24.5820113  53.2683833  21.0904083  25.1350113  52.5673833  20.0494083
  24.5130113  52.7933833  20.4704083  17.3360113  37.3243833  26.0274083
  16.8150113  36.6963833  25.7194083  17.9270113  36.8873833  26.4984083
  17.3470113  37.1663833  26.0514083  20.6420113  39.4573833  35.3254083
  20.7590113  39.0033833  34.5894083  20.9300113  40.2553833  35.1224083
  20.7020113  39.5083833  35.1864083  15.7620113  50.8873833  21.3674083
  16.4180113  50.3123833  21.3824083  16.1510113  51.6363833  21.1464083
  15.9170113  50.9123833  21.3374083  31.4950113  39.9813833  22.6294083
  31.1490113  40.6593833  23.0554083  30.8590113  39.3833833  22.6454083
  31.3500113  39.9933833  22.6944083  26.8070113  52.7513833  28.7334083
  27.5510113  53.2073833  28.7234083  26.6860113  52.5373833  27.8964083
  26.8990113  52.7873833  28.6084083  16.3750113  39.0543833  34.3094083
  15.5970113  38.6643833  34.2374083  16.8660113  38.6423833  33.7184083
  16.3320113  38.9353833  34.2114083  16.5800113  49.3743833  24.8674083
  17.0030113  49.0183833  24.1934083  16.9040113  48.9523833  25.5594083
  16.6900113  49.2593833  24.8704083  19.8110113  52.2263833  24.1634083
  20.6550113  52.3303833  23.9684083  19.5140113  53.0443833  24.2314083
  19.8920113  52.3623833  24.1444083  23.0240113  36.6973833  33.4774083
  23.2020113  35.8883833  33.2024083  22.8810113  37.1383833  32.7384083
  23.0290113  36.6433833  33.3274083  23.6180113  41.6233833  22.2504083
  23.9050113  41.3913833  21.4604083  24.3500113  41.7023833  22.7194083
  23.7680113  41.6003833  22.2034083  24.3400113  41.9623833  17.3714083
  24.6210113  42.7503833  17.6204083  23.5640113  42.1273833  17.0084083
  24.2670113  42.1033833  17.3544083  28.3810113  53.9363833  18.8384083
  29.0460113  53.7883833  18.2934083  28.7410113  53.8533833  19.6284083
  28.5330113  53.9023833  18.8744083  18.8090113  53.4453833  29.9034083
  19.1010113  53.3783833  30.7234083  18.1830113  52.8403833  29.8584083
  18.7600113  53.3463833  30.0184083  31.1700113  38.3043833  27.9984083
  31.9270113  38.3763833  27.5704083  31.2330113  37.5313833  28.3974083
  31.2910113  38.2013833  27.9934083  13.7230113  39.6023833  31.8954083
  13.7190113  40.1893833  32.5414083  14.3170113  39.9143833  31.3384083
  13.8100113  39.7353833  31.9084083  26.0610113  49.9363833  32.4374083
  26.0270113  50.3183833  33.2214083  26.9150113  49.8943833  32.2664083
  26.1820113  49.9863833  32.5284083  23.1990113  50.1333833  17.1874083
  23.0180113  50.6783833  17.8444083  23.9650113  50.4233833  16.8864083
  23.2850113  50.2573833  17.2404083  26.7060113  38.0293833  18.2414083
  27.2460113  37.3473833  18.3174083  26.7680113  38.4273833  19.0154083
  26.7950113  37.9873833  18.3674083  14.6600113  39.1973833  20.8104083
  14.5460113  38.3333833  20.8414083  14.1850113  39.4913833  21.4804083
  14.5730113  39.1133833  20.9134083  16.8020113  51.6073833  29.0254083
  16.1040113  51.0993833  29.1514083  17.0620113  51.4023833  28.2174083
  16.7370113  51.5023833  28.9244083  23.9640113  40.4053833  19.5554083
  23.4560113  39.7433833  19.3014083  24.0160113  40.9093833  18.8454083
  23.8970113  40.3823833  19.4134083  24.5130113  53.1003833  29.9354083
  25.2810113  53.0203833  29.5294083  23.9300113  52.9793833  29.2974083
  24.5400113  53.0703833  29.7814083  23.9640113  37.3463833  19.4464083
  23.5090113  36.9443833  18.8204083  24.7370113  37.5013833  19.0714083
  24.0110113  37.3103833  19.2984083  30.7900113  53.7033833  22.8364083
  30.3350113  54.4203833  23.0374083  30.1760113  53.1323833  22.5944083
  30.6320113  53.7253833  22.8304083  22.5620113  39.7133833  23.9684083
  22.6360113  40.2813833  23.3104083  22.6830113  40.2053833  24.6784083
  22.5900113  39.8703833  23.9764083  27.7870113  49.5483833  22.3804083
  28.4880113  49.0663833  22.5694083  27.1270113  48.9793833  22.4254083
  27.7930113  49.3933833  22.4144083  18.1630113  50.4583833  31.5924083
  19.0040113  50.5213833  31.3704083  18.1260113  50.8553833  32.3684083
  18.2820113  50.5263833  31.6744083  17.1700113  35.5363833  22.3164083
  17.7060113  36.2243833  22.3064083  17.1730113  35.2623833  21.4884083
  17.2490113  35.5973833  22.1924083  20.1260113  45.9693833  26.3414083
  20.2980113  45.7593833  27.1704083  19.4710113  45.4353833  26.1254083
  20.0550113  45.8593833  26.4324083  26.3540113  39.8833833  29.8564083
  26.2590113  40.2023833  30.6624083  25.7610113  39.2443833  29.8184083
  26.2520113  39.8353833  29.9704083  20.8760113  45.9073833  28.9314083
  20.9290113  46.7543833  29.1334083  20.5910113  45.5373833  29.6684083
  20.8420113  45.9773833  29.0694083  27.0530113  46.6023833  28.0614083
  26.5390113  46.1903833  28.6324083  26.9270113  47.4463833  28.2424083
  26.9590113  46.6663833  28.1724083  13.6970113  50.2783833  35.1424083
  14.4530113  50.6273833  35.4004083  13.8740113  49.4253833  35.0854083
  13.8350113  50.2033833  35.1724083  30.0740113  40.0633833  31.0004083
  30.8460113  39.8383833  31.3374083  29.5990113  40.2803833  31.7004083
  30.1180113  40.0623833  31.1534083  17.6180113  39.3463833  23.9704083
  17.8900113  38.9163833  23.2624083  17.4420113  38.7103833  24.5414083
  17.6320113  39.1893833  23.9504083  30.3060113  47.0413833  18.1884083
  30.4250113  46.7543833  19.0034083  31.1130113  47.0623833  17.8584083
  30.4420113  47.0023833  18.2604083  17.4420113  46.7733833  23.5194083
  18.2930113  46.6933833  23.3464083  17.0850113  46.0913833  23.1074083
  17.5150113  46.6603833  23.4324083  16.2090113  53.4983833  24.7564083
  15.5360113  53.0003833  24.5114083  16.6120113  53.6833833  24.0054083
  16.1690113  53.4523833  24.6094083  15.7590113  40.4483833  27.0524083
  16.6020113  40.6683833  27.0094083  15.3700113  41.0213833  26.5214083
  15.8260113  40.5653833  26.9674083  32.5400113  51.5503833  32.4424083
  31.8580113  51.8603833  31.9954083  32.1710113  51.0923833  33.0874083
  32.3840113  51.5283833  32.4714083  28.2010113  43.5783833  17.7734083
  27.9810113  44.3093833  17.3514083  27.7530113  43.6293833  18.5204083
  28.1020113  43.6933833  17.8214083  19.8100113  46.7803833  21.7544083
  20.5230113  47.2753833  21.8444083  20.0320113  46.2133833  21.1284083
  19.9480113  46.7693833  21.6754083  32.3880113  38.4393833  17.2264083
  31.7260113  37.8713833  17.2494083  32.1950113  38.9513833  16.5464083
  32.2620113  38.4313833  17.1294083  13.9660113  48.4233833  25.0744083
  13.2990113  48.9113833  25.3504083  14.6460113  48.9683833  25.1034083
  13.9680113  48.5753833  25.1194083  21.6130113  42.1333833  35.1704083
  21.1290113  42.7103833  35.6124083  21.5850113  42.4283833  34.3494083
  21.5370113  42.2623833  35.1144083  32.7110113  42.8173833  29.7824083
  32.9260113  42.0173833  29.5064083  31.8610113  42.8773833  29.5934083
  32.6170113  42.7083833  29.7134083  14.0320113  45.1073833  20.1774083
  13.8470113  44.2683833  20.3294083  14.6910113  45.0713833  19.6074083
  14.1020113  44.9783833  20.1154083  30.3900113  37.9973833  19.5054083
  31.1360113  37.5903833  19.7044083  30.6530113  38.7123833  19.0804083
  30.5390113  38.0433833  19.4724083  24.3330113  50.4833833  24.0814083
  23.8100113  51.1173833  23.7884083  24.6430113  50.1193833  23.3524083
  24.3010113  50.5233833  23.9304083  14.2040113  49.2713833  19.7524083
  14.7560113  49.8403833  20.1164083  13.9720113  48.7563833  20.4174083
  14.2510113  49.2793833  19.9044083  18.4080113  48.2713833  26.8414083
  18.8750113  48.5603833  27.5194083  18.9800113  47.7933833  26.3874083
  18.5620113  48.2433833  26.8744083  26.8440113  40.2853833  24.5784083
  27.1880113  40.4373833  25.3654083  26.3910113  39.5473833  24.6914083
  26.8280113  40.1983833  24.7114083  14.0340113  47.7203833  17.3804083
  14.7900113  47.2883833  17.4384083  14.0490113  48.2523833  18.0714083
  14.1480113  47.7353833  17.4914083  14.9740113  45.9413833  25.3854083
  15.4050113  45.8123833  24.6384083  14.7690113  46.7893833  25.3594083
  15.0070113  46.0473833  25.2714083  21.3200113  39.5053833  19.0354083
  21.3180113  39.3883833  18.1704083  21.1390113  40.3533833  19.1274083
  21.2930113  39.6133833  18.9214083  30.3740113  51.9323833  30.5324083
  29.7030113  52.4463833  30.7504083  30.4370113  52.0323833  29.6684083
  30.2840113  52.0233833  30.4374083  19.0580113  49.4573833  23.6674083
  19.1840113  50.3003833  23.8544083  19.7260113  49.0583833  24.0634083
  19.1760113  49.5233833  23.7534083  17.1880113  42.9403833  33.5294083
  16.6520113  42.4343833  33.9974083  17.2080113  42.5503833  32.7494083
  17.1110113  42.8073833  33.4834083  17.6730113  42.3373833  18.6694083
  17.5450113  41.8893833  19.4074083  17.0910113  41.9953833  18.1174083
  17.5680113  42.2203833  18.6974083  17.8400113  44.1673833  25.2684083
  17.0590113  44.1083833  24.8854083  17.9120113  43.4153833  25.7054083
  17.7350113  44.0483833  25.2764083  18.2700113  43.9043833  28.7364083
  18.2950113  43.2293833  28.1854083  17.6240113  44.4003833  28.4244083
  18.1790113  43.8773833  28.6094083  28.1650113  41.6173833  27.1324083
  27.5030113  41.9453833  27.5954083  28.3520113  42.2513833  26.5634083
  28.0950113  41.7593833  27.1164083  22.3700113  52.6813833  28.1284083
  22.0930113  52.0403833  27.6054083  22.1620113  53.4073833  27.6904083
  22.2990113  52.6943833  27.9864083  24.8100113  37.5233833  30.5614083
  24.9590113  36.6983833  30.3184083  25.1890113  37.5783833  31.3454083
  24.8880113  37.4093833  30.6414083  26.3580113  39.5863833  20.6434083
  26.8480113  40.3033833  20.5664083  25.5680113  39.8473833  20.3804083
  26.3140113  39.7303833  20.5934083  16.0690113  45.2593833  34.2954083
  16.0320113  45.7603833  33.5814083  16.4000113  44.5073833  34.0004083
  16.1120113  45.2213833  34.1464083  27.6720113  47.4643833  32.5534083
  28.1560113  48.1823833  32.6514083  28.0660113  47.0373833  31.9024083
  27.8020113  47.5073833  32.4714083  21.9680113  50.3093833  33.7304083
  22.3220113  50.1313833  34.5074083  21.5320113  49.5803833  33.5314083
  21.9560113  50.1753833  33.8164083  22.9400113  41.0563833  26.3684083
  23.4200113  41.7553833  26.5764083  23.3130113  40.4093833  26.8194083
  23.0660113  41.0643833  26.4654083  25.1290113  44.2253833  18.6424083
  25.1210113  44.9473833  18.1524083  24.4900113  44.3603833  19.2194083
  25.0340113  44.3523833  18.6554083  30.1010113  48.0953833  22.6234083
  30.4570113  47.7453833  23.3384083  30.0930113  47.4343833  22.0534083
  30.1530113  47.9453833  22.6444083  26.1460113  51.1613833  26.4674083
  25.5430113  50.8653833  25.9104083  26.6910113  51.6133833  25.9584083
  26.1370113  51.1843833  26.3094083  26.1590113  48.0123833  25.8674083
  25.3620113  48.2363833  26.1414083  26.4170113  47.4183833  26.4524083
  26.0790113  47.9573833  25.9944083  20.0510113  52.8243833  20.3154083
  19.9040113  52.0483833  20.6864083  20.7400113  52.6773833  19.8004083
  20.1310113  52.6873833  20.2944083  19.7220113  36.5673833  18.3034083
  19.8190113  36.4603833  19.1644083  19.0140113  37.0733833  18.2384083
  19.6320113  36.6263833  18.4214083  22.3430113  52.3403833  18.7174083
  22.9650113  52.5033833  19.3074083  22.3790113  53.0313833  18.1854083
  22.4400113  52.4663833  18.7264083  29.4190113  46.0103833  30.7134083
  29.4740113  46.1353833  29.8514083  30.1720113  46.3303833  31.0154083
  29.5380113  46.0753833  30.6304083  16.8440113  44.8743833  19.5464083
  17.1680113  44.0953833  19.3244083  17.4900113  45.2423833  20.0014083
  16.9870113  44.8133833  19.5804083  25.1500113  45.8163833  30.3134083
  24.9950113  46.4263833  30.9174083  25.6840113  45.2583833  30.7194083
  25.2060113  45.8243833  30.4624083  13.8410113  36.5353833  20.5144083
  13.9700113  35.8273833  20.0224083  13.4740113  36.2173833  21.2394083
  13.8060113  36.3833833  20.5494083  23.5340113  44.2163833  20.9714083
  23.5930113  44.8663833  21.5504083  23.3450113  43.5203833  21.4624083
  23.5150113  44.2093833  21.1294083  28.7600113  48.5453833  26.8404083
  28.2810113  48.8433833  26.1744083  28.4040113  47.7693833  27.0184083
  28.6370113  48.4743833  26.7684083  18.0300113  38.7333833  17.4834083
  17.5190113  38.7863833  16.7774083  18.8140113  38.9733833  17.1874083
  18.0700113  38.7763833  17.3354083  22.7570113  46.2633833  25.4024083
  21.9100113  46.0693833  25.4834083  23.0810113  46.0983833  26.1954083
  22.6790113  46.2103833  25.5314083  19.5090113  52.9933833  16.2884083
  19.9480113  52.2963833  16.5764083  19.7160113  53.6173833  16.8614083
  19.6050113  52.9823833  16.4154083  16.6050113  45.9563833  27.7184083
  17.3270113  46.4443833  27.6814083  16.3350113  45.9263833  26.8894083
  16.6720113  46.0243833  27.5904083  19.8350113  41.1273833  24.4534083
  20.6810113  40.9373833  24.5514083  19.4650113  40.3503833  24.3154083
  19.9050113  40.9843833  24.4474083  32.4520113  52.7113833  18.7804083
  33.1460113  52.2443833  18.5324083  31.9130113  52.1133833  19.1174083
  32.4750113  52.5533833  18.7934083  14.6560113  42.4653833  21.1084083
  15.1450113  42.1733833  21.7694083  14.7850113  41.8723833  20.4814083
  14.7470113  42.3343833  21.1134083  29.6910113  45.4873833  27.9594083
  29.6840113  44.7113833  28.3574083  28.8500113  45.7213833  27.9524083
  29.5660113  45.4073833  28.0174083  19.1810113  43.8993833  16.5944083
  18.5710113  43.4943833  17.0684083  18.7950113  44.0173833  15.8214083
  19.0340113  43.8563833  16.5504083  16.0000113  47.0083833  31.9964083
  15.5790113  46.4903833  31.4354083  15.6480113  47.7943833  31.8534083
  15.8860113  47.0483833  31.8924083  30.9470113  45.5583833  25.3964083
  30.6610113  45.9593833  26.1164083  31.8070113  45.4963833  25.5234083
  31.0320113  45.6083833  25.5214083  20.6360113  42.3603833  19.3044083
  20.9080113  43.1863833  19.3714083  19.7730113  42.4353833  19.2084083
  20.5490113  42.4933833  19.2994083  14.1160113  38.3303833  25.8404083
  14.1600113  38.6743833  25.0394083  14.8710113  38.5673833  26.2074083
  14.2340113  38.4163833  25.7764083  32.0780113  51.1913833  25.9254083
  32.3680113  51.4483833  25.1444083  32.7730113  51.2873833  26.4444083
  32.2240113  51.2433833  25.8864083  27.1010113  43.0513833  34.0124083
  27.1740113  43.1553833  34.8754083  26.4670113  43.6093833  33.7914083
  27.0180113  43.1493833  34.1074083  29.3690113  43.3703833  32.3774083
  29.6880113  44.1563833  32.5804083  28.9990113  43.1003833  33.1204083
  29.3620113  43.4463833  32.5174083  28.6830113  49.7943833  17.9074083
  29.0170113  48.9883833  17.9424083  27.9280113  49.7223833  18.3374083
  28.6210113  49.6643833  17.9764083  29.1650113  41.6283833  23.5664083
  28.4200113  41.3053833  23.8844083  29.1670113  42.4543833  23.8464083
  29.0550113  41.7023833  23.6544083  32.0670113  43.9123833  35.1124083
  32.0150113  43.5713833  34.3114083  32.8040113  44.3793833  35.0904083
  32.1680113  43.9313833  34.9904083  31.6050113  47.5883833  31.3184083
  32.2330113  47.0393833  31.0624083  31.5440113  48.1533833  30.6564083
  31.6890113  47.5913833  31.1824083  26.0570113  47.6693833  17.3104083
  26.7410113  47.1553833  17.1414083  25.6400113  47.7153833  16.5454083
  26.0960113  47.6003833  17.1724083  20.7390113  48.8193833  28.6144083
  20.4410113  49.4113833  29.1814083  20.7940113  49.2613833  27.8654083
  20.7030113  48.9723833  28.5874083  18.7180113  47.7693833  32.0124083
  17.9120113  47.4793833  32.1794083  18.6290113  48.6373833  32.0184083
  18.5860113  47.8543833  32.0374083  28.0770113  37.9583833  31.0274083
  28.8210113  38.4103833  30.9644083  27.5110113  38.4283833  30.5584083
  28.1040113  38.0953833  30.9494083  23.2550113  45.2423833  28.1054083
  23.7310113  45.6163833  28.7334083  22.4320113  45.3763833  28.3644083
  23.2040113  45.3173833  28.2364083  19.9650113  40.8453833  30.8464083
  20.1260113  40.1013833  31.2734083  19.9200113  40.5963833  30.0114083
  19.9820113  40.6983833  30.7864083  22.5190113  52.6353833  23.3334083
  23.0650113  53.3143833  23.3874083  22.1690113  52.7173833  22.5384083
  22.5480113  52.7483833  23.2234083  29.3620113  35.9383833  28.6974083
  29.0820113  36.7633833  28.6534083  30.0780113  35.9913833  29.1934083
  29.4270113  36.0683833  28.7644083  21.7170113  36.6533833  30.7264083
  22.4220113  36.9733833  30.3244083  21.9580113  35.8463833  30.9534083
  21.8560113  36.5813833  30.7004083  20.7020113  50.8633833  26.7224083
  20.0780113  51.4453833  26.5404083  20.9500113  50.5773833  25.9364083
  20.6460113  50.9073833  26.5794083  25.0110113  47.4973833  33.7114083
  25.7680113  47.7833833  33.3854083  24.4640113  47.5493833  33.0334083
  25.0420113  47.5473833  33.5624083  28.9200113  50.0473833  32.2154083
  29.2660113  50.3173833  32.9694083  29.2140113  50.6293833  31.6354083
  29.0150113  50.1733833  32.2414083  30.7830113  42.1933833  17.5544083
  31.1610113  42.8703833  17.1544083  29.9410113  42.4173833  17.5854083
  30.7140113  42.3263833  17.4994083  22.2960113  45.6393833  16.6374083
  21.4910113  45.4623833  16.3524083  22.2630113  46.4903833  16.8294083
  22.1720113  45.7383833  16.6244083  18.2260113  41.7063833  26.7874083
  18.6660113  41.6033833  26.0414083  18.7710113  41.3933833  27.3924083
  18.3710113  41.6453833  26.7664083  26.2420113  40.8083833  32.3794083
  25.5940113  41.2783833  32.7274083  26.8070113  40.7193833  33.0384083
  26.2300113  40.8643833  32.5284083  25.9300113  42.3453833  28.6774083
  26.2320113  42.7653833  29.3804083  25.9660113  41.5053833  28.9094083
  25.9800113  42.2833833  28.8154083  23.3550113  52.5123833  32.6024083
  23.8330113  51.9123833  32.1864083  23.0040113  52.0693833  33.2674083
  23.3740113  52.3583833  32.6394083  28.4780113  41.7923833  20.9294083
  28.6850113  41.5913833  21.7534083  29.2340113  42.0603833  20.5874083
  28.6200113  41.8023833  21.0004083  21.7730113  36.6913833  26.8344083
  20.9470113  36.5423833  27.0714083  21.7330113  36.7263833  25.9634083
  21.6450113  36.6743833  26.7404083  29.5000113  37.8753833  22.4034083
  28.7860113  37.4043833  22.5744083  29.3380113  38.2163833  21.6174083
  29.3710113  37.8563833  22.3124083  29.9430113  45.8193833  20.7834083
  30.4190113  45.0903833  20.7354083  29.1220113  45.5333833  20.7074083
  29.8920113  45.6693833  20.7644083  23.4140113  47.7313833  31.6224083
  22.6190113  47.6673833  31.9734083  23.4850113  48.5783833  31.4274083
  23.3070113  47.8463833  31.6454083  14.3380113  37.0893833  32.8694083
  14.1980113  37.8843833  32.5384083  13.5520113  36.8463833  33.1584083
  14.2010113  37.1713833  32.8634083  19.2440113  53.9383833  26.9394083
  19.2550113  53.9973833  27.8094083  18.8190113  53.1913833  26.7894083
  19.1830113  53.8363833  27.0454083  17.4020113  39.8333833  20.0944083
  17.5280113  39.5043833  19.2964083  16.5900113  39.5843833  20.2934083
  17.3010113  39.7483833  20.0064083  26.1590113  46.9863833  23.1384083
  26.2350113  47.3273833  23.9374083  26.3280113  46.1393833  23.2594083
  26.1950113  46.9113833  23.2744083  23.6810113  46.2603833  22.7034083
  23.3830113  45.9453833  23.4604083  24.3760113  46.7333833  22.9384083
  23.7400113  46.2833833  22.8504083  23.9030113  50.3783833  30.7304083
  24.5900113  50.2643833  31.2554083  24.0370113  51.1693833  30.3864083
  24.0240113  50.4783833  30.7574083  32.0790113  42.9873833  32.5414083
  31.2240113  42.8653833  32.6674083  32.2320113  42.5923833  31.7784083
  31.9750113  42.9103833  32.4474083  26.5920113  43.6523833  31.1174083
  26.3370113  42.9333833  31.5394083  27.4130113  43.7683833  31.3874083
  26.6760113  43.5633833  31.2194083  16.0080113  53.4363833  32.3814083
  15.3540113  52.8673833  32.4794083  15.6330113  54.2093833  32.5324083
  15.8560113  53.4663833  32.4184083  24.5260113  44.8423833  34.3044083
  24.8490113  45.5283833  33.8724083  23.8220113  45.1653833  34.7064083
  24.4690113  44.9913833  34.2994083  27.6100113  53.2163833  25.2334083
  27.1590113  53.8593833  25.6124083  28.3180113  53.1373833  25.7384083
  27.6480113  53.2993833  25.3644083  24.3110113  48.3063833  28.1634083
  23.6170113  48.7083833  28.5064083  24.9880113  48.7393833  28.5024083
  24.3080113  48.4293833  28.2644083  29.6880113  50.8993833  34.7434083
  30.4640113  50.5093833  34.8264083  29.2190113  50.5633833  35.3984083
  29.7330113  50.7923833  34.8524083  17.3790113  41.8443833  30.5104083
  17.7540113  42.4633833  30.0234083  18.0530113  41.3703833  30.7954083
  17.5340113  41.8663833  30.4804083  15.1540113  40.2923833  29.7854083
  15.2310113  40.1233833  28.9324083  15.9000113  40.6983833  29.9824083
  15.2750113  40.3273833  29.6884083  30.7130113  42.9323833  20.2254083
  30.8160113  42.8743833  19.3614083  31.4540113  42.6003833  20.5434083
  30.8380113  42.8753833  20.1444083  17.7080113  37.7023833  32.1964083
  17.6270113  36.8583833  32.4024083  17.3940113  37.7463833  31.3834083
  17.6500113  37.5843833  32.1064083  24.6330113  49.8973833  21.3324083
  24.4280113  50.7303833  21.1734083  23.8580113  49.5153833  21.4544083
  24.4880113  49.9643833  21.3274083  29.8150113  43.0783833  29.5814083
  29.8130113  42.2153833  29.7054083  29.8820113  43.4023833  30.3884083
  29.8250113  42.9983833  29.7184083  14.5510113  45.5183833  30.0094083
  14.8710113  45.7373833  29.2284083  14.4510113  44.6533833  29.9544083
  14.5830113  45.4233833  29.8864083  16.0070113  41.4543833  16.6274083
  15.3350113  41.4683833  17.1834083  16.1020113  40.6063833  16.4434083
  15.9220113  41.3313833  16.6824083  25.6940113  37.8783833  33.3634083
  25.7860113  38.5903833  33.8574083  25.0570113  37.4333833  33.7604083
  25.6130113  37.9173833  33.4954083  24.6880113  38.0683833  24.2174083
  23.9880113  38.5863833  24.1614083  24.7260113  37.6883833  23.4334083
  24.5900113  38.0893833  24.0934083  19.9950113  50.1593833  17.7414083
  20.4360113  50.2393833  18.4894083  19.1900113  49.9433833  17.9994083
  19.9410113  50.1393833  17.8904083  28.2860113  38.5843833  27.0174083
  29.1410113  38.6833833  27.1624083  27.9170113  39.1373833  27.5824083
  28.3580113  38.6813833  27.1224083  19.3140113  44.8103833  31.3944083
  18.9180113  45.5843833  31.4694083  18.9080113  44.4373833  30.7184083
  19.1960113  44.8693833  31.3054083  28.5900113  43.8643833  25.5084083
  29.2560113  44.4053833  25.6684083  28.2450113  44.1753833  24.7694083
  28.6370113  43.9903833  25.4234083  28.9030113  51.9303833  21.3154083
  28.7290113  51.2763833  21.8654083  29.6160113  51.6593833  20.8924083
  28.9830113  51.7933833  21.3344083  17.3240113  49.2293833  18.3424083
  17.0800113  48.9223833  19.1224083  17.2910113  48.5263833  17.8264083
  17.2830113  49.0803833  18.3814083  20.1430113  47.4743833  17.0854083
  19.3250113  47.2063833  17.2254083  20.1150113  48.3263833  17.2704083
  20.0180113  47.5613833  17.1334083  19.7430113  37.7873833  28.8444083
  18.8790113  37.8713833  28.9244083  19.9630113  37.2733833  29.5134083
  19.6480113  37.7243833  28.9554083  31.7610113  36.4223833  30.1734083
  31.7090113  36.3783833  31.0434083  32.4480113  35.9193833  29.9834083
  31.8550113  36.3423833  30.2734083  23.8460113  38.5353833  27.2184083
  23.1090113  38.0813833  27.3314083  24.4170113  38.1333833  27.7414083
  23.8210113  38.4083833  27.3124083  26.5780113  49.3833833  29.0064083
  26.7840113  49.6843833  29.7984083  26.5170113  50.1053833  28.5214083
  26.5990113  49.5343833  29.0514083  26.1120113  53.5973833  33.2524083
  25.3590113  53.5793833  32.8114083  26.2800113  54.4493833  33.3364083
  26.0260113  53.7203833  33.1994083  21.3490113  42.8643833  32.4224083
  21.0270113  42.2883833  31.8524083  20.9900113  43.6193833  32.1764083
  21.2490113  42.8903833  32.3024083  22.1450113  36.1163833  17.0494083
  22.2230113  36.3633833  16.2164083  21.4020113  36.4933833  17.3074083
  22.0470113  36.2083833  16.9644083  31.3900113  48.0223833  28.4644083
  31.3580113  47.1603833  28.3294083  30.6970113  48.3243833  28.0304083
  31.2830113  47.9393833  28.3804083  19.7840113  53.2203833  32.6704083
  19.8250113  53.3463833  33.5334083  20.4350113  52.6603833  32.5144083
  19.8860113  53.1563833  32.7754083  29.4950113  51.2823833  27.2614083
  30.0220113  51.1993833  26.5704083  29.1040113  50.5043833  27.3154083
  29.5150113  51.1553833  27.1674083  16.9630113  37.8703833  29.4924083
  16.6200113  37.1033833  29.2584083  16.2680113  38.3943833  29.5564083
  16.8100113  37.8343833  29.4674083  26.0090113  36.7263833  26.4694083
  26.6790113  37.2703833  26.5964083  25.5060113  37.1503833  25.8964083
  26.0340113  36.8693833  26.4034083  17.3770113  51.6033833  34.0304083
  17.9720113  52.0343833  34.5024083  17.0130113  52.2273833  33.5414083
  17.4110113  51.7593833  34.0274083  25.3680113  42.5343833  23.9624083
  25.9190113  41.9273833  24.2624083  24.9430113  42.7973833  24.6774083
  25.3870113  42.4833833  24.1114083  15.6160113  41.1843833  23.4484083
  15.2480113  41.4863833  24.1794083  16.1500113  40.5553833  23.7324083
  15.6400113  41.1363833  23.5984083  15.3040113  49.5923833  30.9594083
  14.7300113  50.0083833  31.4684083  16.0370113  50.0573833  31.0544083
  15.3280113  49.7223833  31.0484083  27.3380113  44.3653833  20.5244083
  27.4060113  43.5153833  20.7054083  26.5150113  44.4513833  20.2464083
  27.2260113  44.2523833  20.5104083  17.0900113  52.8593833  19.7344083
  16.9450113  53.0153833  18.8884083  17.9560113  52.9383833  19.8124083
  17.1970113  52.8943833  19.6214083  21.2570113  45.2563833  19.4624083
  21.3570113  45.3953833  18.6074083  22.0750113  45.1963833  19.7584083
  21.3920113  45.2673833  19.3794083  30.4170113  53.3203833  16.9424083
  31.0540113  53.1863833  17.5234083  30.0760113  52.5263833  16.8254083
  30.4610113  53.1833833  17.0104083  30.6120113  45.7383833  33.6754083
  31.2460113  45.5683833  34.2494083  31.0290113  46.1413833  33.0234083
  30.7670113  45.7733833  33.6644083  26.4920113  49.5853833  19.2644083
  26.2410113  49.4573833  20.0904083  26.1750113  48.8903833  18.8434083
  26.4080113  49.4643833  19.3244083  31.1360113  41.2433833  27.3844083
  30.3030113  41.4933833  27.3124083  31.0800113  40.4033833  27.6134083
  31.0050113  41.1563833  27.4074083  20.3960113  38.2313833  32.5784083
  20.6300113  37.6553833  31.9654083  19.5540113  38.0503833  32.7194083
  20.3060113  38.1193833  32.5084083  28.0230113  45.8493833  35.0304083
  28.8940113  45.8133833  34.9944083  27.8040113  46.2693833  34.2984083
  28.1200113  45.9053833  34.9174083  17.7770113  51.6743833  26.2114083
  17.6980113  50.8643833  25.8954083  17.3330113  52.1613833  25.6394083
  17.7000113  51.6263833  26.0804083  23.3780113  47.7933833  18.6944083
  24.0950113  47.4463833  18.3384083  23.3440113  48.5933833  18.3464083
  23.4790113  47.8603833  18.5904083  15.3490113  53.9183833  29.7924083
  15.8420113  53.8623833  30.5104083  15.5370113  53.1853833  29.3574083
  15.4500113  53.8013833  29.8344083  24.7870113  36.4343833   2.9331673
  24.5420113  36.9223833   2.2531673  25.6500113  36.3613833   2.8331673
  24.8780113  36.4953833   2.8181673  24.5960113  43.3503833   7.6041673
  24.0720113  43.9463833   7.9671673  24.9930113  42.9823833   8.2881673
  24.5770113  43.3843833   7.7591673  14.4650113  47.4903833   3.0601673
  14.0240113  47.6083833   3.8031673  14.1820113  46.7153833   2.7751673
  14.3580113  47.3933833   3.1281673  27.2670113  44.4173833   4.2801673
  27.3470113  44.4213833   3.4111673  26.6830113  43.7853833   4.4291673
  27.1920113  44.3243833   4.1741673  16.9740113  48.1863833   2.1391673
  17.5820113  48.0163833   2.7421673  16.2230113  48.0463833   2.5601673
  16.9530113  48.1403833   2.2901673  21.2560113  37.5213833   2.0881673
  21.1860113  38.1983833   1.5421673  21.9970113  37.1333833   1.8391673
  21.3550113  37.5643833   1.9701673  14.4050113  50.2253833   9.3151673
  14.5340113  49.9453833  10.1311673  13.7950113  49.6843833   9.0061673
  14.3340113  50.1043833   9.3901673  20.9790113  47.7503833  14.3821673
  20.7430113  47.7473833  15.2221673  20.2310113  47.6023833  13.9581673
  20.8330113  47.7273833  14.4431673  15.8510113  44.7463833   3.5171673
  15.3890113  44.3543833   2.8901673  16.5510113  44.2333833   3.6091673
  15.8860113  44.6133833   3.4381673  20.3590113  40.3563833   8.8641673
  21.0370113  40.3743833   8.3151673  20.3140113  39.5203833   9.1091673
  20.4520113  40.2353833   8.8191673  20.9610113  50.9423833  11.6451673
  21.0990113  51.7023833  11.2381673  21.7520113  50.5773833  11.6721673
  21.0980113  51.0013833  11.5891673  17.8520113  42.8463833   3.5401673
  18.6690113  42.6593833   3.7831673  17.3750113  42.2323833   3.9361673
  17.9020113  42.7283833   3.6351673  22.0560113  48.8273833   6.1501673
  22.4040113  48.0283833   6.1801673  22.7210113  49.3313833   5.8951673
  22.2060113  48.7833833   6.1171673  22.1130113  48.2763833   2.3611673
  22.4440113  47.6323833   2.8471673  22.3530113  48.0653833   1.5501673
  22.1970113  48.1503833   2.3131673  24.0810113  42.4073833  13.7001673
  23.2330113  42.3083833  13.5221673  24.1100113  43.1523833  14.1541673
  23.9600113  42.5033833  13.7411673  18.4490113  37.9403833   2.8061673
  18.1530113  38.4413833   2.1561673  19.3160113  38.0183833   2.7491673
  18.5330113  38.0263833   2.7021673  28.6390113  35.3673833  12.8141673
  28.4810113  36.1363833  12.4321673  27.8670113  35.1473833  13.1581673
  28.5010113  35.4483833  12.8091673  21.4280113  37.0823833   5.0291673
  21.5010113  37.9423833   5.1581673  21.3900113  37.0073833   4.1611673
  21.4330113  37.1983833   4.9201673  14.3070113  42.5073833   6.5301673
  14.0510113  43.3383833   6.4551673  13.6430113  42.1243833   6.9471673
  14.1710113  42.5733833   6.5811673  14.2170113  52.2173833   4.4301673
  13.6250113  52.7753833   4.1171673  14.6430113  51.9483833   3.7181673
  14.1930113  52.2593833   4.2791673  20.0570113  50.0613833   1.9101673
  19.4780113  49.7863833   2.5021673  20.6810113  49.4523833   1.9351673
  20.0640113  49.9313833   2.0011673  17.3360113  37.3243833   7.0211673
  16.8150113  36.6963833   6.7131673  17.9270113  36.8873833   7.4921673
  17.3470113  37.1663833   7.0451673  20.6420113  39.4573833  16.3191673
  20.7590113  39.0033833  15.5831673  20.9300113  40.2553833  16.1161673
  20.7020113  39.5083833  16.1801673  15.7620113  50.8873833   2.3611673
  16.4180113  50.3123833   2.3761673  16.1510113  51.6363833   2.1401673
  15.9170113  50.9123833   2.3311673  31.4950113  39.9813833   3.6231673
  31.1490113  40.6593833   4.0491673  30.8590113  39.3833833   3.6391673
  31.3500113  39.9933833   3.6881673  26.8070113  52.7513833   9.7271673
  27.5510113  53.2073833   9.7171673  26.6860113  52.5373833   8.8901673
  26.8990113  52.7873833   9.6021673  16.3750113  39.0543833  15.3031673
  15.5970113  38.6643833  15.2311673  16.8660113  38.6423833  14.7121673
  16.3320113  38.9353833  15.2051673  16.5800113  49.3743833   5.8611673
  17.0030113  49.0183833   5.1871673  16.9040113  48.9523833   6.5531673
  16.6900113  49.2593833   5.8641673  19.8110113  52.2263833   5.1571673
  20.6550113  52.3303833   4.9621673  19.5140113  53.0443833   5.2251673
  19.8920113  52.3623833   5.1381673  23.0240113  36.6973833  14.4711673
  23.2020113  35.8883833  14.1961673  22.8810113  37.1383833  13.7321673
  23.0290113  36.6433833  14.3211673  23.6180113  41.6233833   3.2441673
  23.9050113  41.3913833   2.4541673  24.3500113  41.7023833   3.7131673
  23.7680113  41.6003833   3.1971673  18.8090113  53.4453833  10.8971673
  19.1010113  53.3783833  11.7171673  18.1830113  52.8403833  10.8521673
  18.7600113  53.3463833  11.0121673  31.1700113  38.3043833   8.9921673
  31.9270113  38.3763833   8.5641673  31.2330113  37.5313833   9.3911673
  31.2910113  38.2013833   8.9871673  13.7230113  39.6023833  12.8891673
  13.7190113  40.1893833  13.5351673  14.3170113  39.9143833  12.3321673
  13.8100113  39.7353833  12.9021673  26.0610113  49.9363833  13.4311673
  26.0270113  50.3183833  14.2151673  26.9150113  49.8943833  13.2601673
  26.1820113  49.9863833  13.5221673  14.6600113  39.1973833   1.8041673
  14.5460113  38.3333833   1.8351673  14.1850113  39.4913833   2.4741673
  14.5730113  39.1133833   1.9071673  16.8020113  51.6073833  10.0191673
  16.1040113  51.0993833  10.1451673  17.0620113  51.4023833   9.2111673
  16.7370113  51.5023833   9.9181673  24.5130113  53.1003833  10.9291673
  25.2810113  53.0203833  10.5231673  23.9300113  52.9793833  10.2911673
  24.5400113  53.0703833  10.7751673  30.7900113  53.7033833   3.8301673
  30.3350113  54.4203833   4.0311673  30.1760113  53.1323833   3.5881673
  30.6320113  53.7253833   3.8241673  22.5620113  39.7133833   4.9621673
  22.6360113  40.2813833   4.3041673  22.6830113  40.2053833   5.6721673
  22.5900113  39.8703833   4.9701673  27.7870113  49.5483833   3.3741673
  28.4880113  49.0663833   3.5631673  27.1270113  48.9793833   3.4191673
  27.7930113  49.3933833   3.4081673  18.1630113  50.4583833  12.5861673
  19.0040113  50.5213833  12.3641673  18.1260113  50.8553833  13.3621673
  18.2820113  50.5263833  12.6681673  17.1700113  35.5363833   3.3101673
  17.7060113  36.2243833   3.3001673  17.1730113  35.2623833   2.4821673
  17.2490113  35.5973833   3.1861673  20.1260113  45.9693833   7.3351673
  20.2980113  45.7593833   8.1641673  19.4710113  45.4353833   7.1191673
  20.0550113  45.8593833   7.4261673  26.3540113  39.8833833  10.8501673
  26.2590113  40.2023833  11.6561673  25.7610113  39.2443833  10.8121673
  26.2520113  39.8353833  10.9641673  20.8760113  45.9073833   9.9251673
  20.9290113  46.7543833  10.1271673  20.5910113  45.5373833  10.6621673
  20.8420113  45.9773833  10.0631673  27.0530113  46.6023833   9.0551673
  26.5390113  46.1903833   9.6261673  26.9270113  47.4463833   9.2361673
  26.9590113  46.6663833   9.1661673  27.6100113  35.8273833   3.6861673
  27.6590113  35.5093833   4.4971673  27.9330113  35.1833833   3.1931673
  27.6650113  35.6853833   3.7331673  13.6970113  50.2783833  16.1361673
  14.4530113  50.6273833  16.3941673  13.8740113  49.4253833  16.0791673
  13.8350113  50.2033833  16.1661673  30.0740113  40.0633833  11.9941673
  30.8460113  39.8383833  12.3311673  29.5990113  40.2803833  12.6941673
  30.1180113  40.0623833  12.1471673  17.6180113  39.3463833   4.9641673
  17.8900113  38.9163833   4.2561673  17.4420113  38.7103833   5.5351673
  17.6320113  39.1893833   4.9441673  17.4420113  46.7733833   4.5131673
  18.2930113  46.6933833   4.3401673  17.0850113  46.0913833   4.1011673
  17.5150113  46.6603833   4.4261673  16.2090113  53.4983833   5.7501673
  15.5360113  53.0003833   5.5051673  16.6120113  53.6833833   4.9991673
  16.1690113  53.4523833   5.6031673  15.7590113  40.4483833   8.0461673
  16.6020113  40.6683833   8.0031673  15.3700113  41.0213833   7.5151673
  15.8260113  40.5653833   7.9611673  32.5400113  51.5503833  13.4361673
  31.8580113  51.8603833  12.9891673  32.1710113  51.0923833  14.0811673
  32.3840113  51.5283833  13.4651673  19.8100113  46.7803833   2.7481673
  20.5230113  47.2753833   2.8381673  20.0320113  46.2133833   2.1221673
  19.9480113  46.7693833   2.6691673  13.9660113  48.4233833   6.0681673
  13.2990113  48.9113833   6.3441673  14.6460113  48.9683833   6.0971673
  13.9680113  48.5753833   6.1131673  21.6130113  42.1333833  16.1641673
  21.1290113  42.7103833  16.6061673  21.5850113  42.4283833  15.3431673
  21.5370113  42.2623833  16.1081673  32.7110113  42.8173833  10.7761673
  32.9260113  42.0173833  10.5001673  31.8610113  42.8773833  10.5871673
  32.6170113  42.7083833  10.7071673  24.3330113  50.4833833   5.0751673
  23.8100113  51.1173833   4.7821673  24.6430113  50.1193833   4.3461673
  24.3010113  50.5233833   4.9241673  18.4080113  48.2713833   7.8351673
  18.8750113  48.5603833   8.5131673  18.9800113  47.7933833   7.3811673
  18.5620113  48.2433833   7.8681673  26.8440113  40.2853833   5.5721673
  27.1880113  40.4373833   6.3591673  26.3910113  39.5473833   5.6851673
  26.8280113  40.1983833   5.7051673  14.9740113  45.9413833   6.3791673
  15.4050113  45.8123833   5.6321673  14.7690113  46.7893833   6.3531673
  15.0070113  46.0473833   6.2651673  30.3740113  51.9323833  11.5261673
  29.7030113  52.4463833  11.7441673  30.4370113  52.0323833  10.6621673
  30.2840113  52.0233833  11.4311673  19.0580113  49.4573833   4.6611673
  19.1840113  50.3003833   4.8481673  19.7260113  49.0583833   5.0571673
  19.1760113  49.5233833   4.7471673  17.1880113  42.9403833  14.5231673
  16.6520113  42.4343833  14.9911673  17.2080113  42.5503833  13.7431673
  17.1110113  42.8073833  14.4771673  17.8400113  44.1673833   6.2621673
  17.0590113  44.1083833   5.8791673  17.9120113  43.4153833   6.6991673
  17.7350113  44.0483833   6.2701673  18.2700113  43.9043833   9.7301673
  18.2950113  43.2293833   9.1791673  17.6240113  44.4003833   9.4181673
  18.1790113  43.8773833   9.6031673  28.1650113  41.6173833   8.1261673
  27.5030113  41.9453833   8.5891673  28.3520113  42.2513833   7.5571673
  28.0950113  41.7593833   8.1101673  22.3700113  52.6813833   9.1221673
  22.0930113  52.0403833   8.5991673  22.1620113  53.4073833   8.6841673
  22.2990113  52.6943833   8.9801673  24.8100113  37.5233833  11.5551673
  24.9590113  36.6983833  11.3121673  25.1890113  37.5783833  12.3391673
  24.8880113  37.4093833  11.6351673  16.0690113  45.2593833  15.2891673
  16.0320113  45.7603833  14.5751673  16.4000113  44.5073833  14.9941673
  16.1120113  45.2213833  15.1401673  27.6720113  47.4643833  13.5471673
  28.1560113  48.1823833  13.6451673  28.0660113  47.0373833  12.8961673
  27.8020113  47.5073833  13.4651673  21.9680113  50.3093833  14.7241673
  22.3220113  50.1313833  15.5011673  21.5320113  49.5803833  14.5251673
  21.9560113  50.1753833  14.8101673  22.9400113  41.0563833   7.3621673
  23.4200113  41.7553833   7.5701673  23.3130113  40.4093833   7.8131673
  23.0660113  41.0643833   7.4591673  30.1010113  48.0953833   3.6171673
  30.4570113  47.7453833   4.3321673  30.0930113  47.4343833   3.0471673
  30.1530113  47.9453833   3.6381673  26.1460113  51.1613833   7.4611673
  25.5430113  50.8653833   6.9041673  26.6910113  51.6133833   6.9521673
  26.1370113  51.1843833   7.3031673  26.1590113  48.0123833   6.8611673
  25.3620113  48.2363833   7.1351673  26.4170113  47.4183833   7.4461673
  26.0790113  47.9573833   6.9881673  29.4190113  46.0103833  11.7071673
  29.4740113  46.1353833  10.8451673  30.1720113  46.3303833  12.0091673
  29.5380113  46.0753833  11.6241673  25.6100113  51.3593833  15.9841673
  25.7740113  51.6423833  16.7931673  25.8730113  52.0203833  15.4791673
  25.6730113  51.4993833  16.0291673  30.4510113  36.3083833  14.6941673
  29.8140113  35.9083833  14.2521673  30.4770113  35.8773833  15.4521673
  30.3610113  36.1863833  14.7401673  25.1500113  45.8163833  11.3071673
  24.9950113  46.4263833  11.9111673  25.6840113  45.2583833  11.7131673
  25.2060113  45.8243833  11.4561673  23.5340113  44.2163833   1.9651673
  23.5930113  44.8663833   2.5441673  23.3450113  43.5203833   2.4561673
  23.5150113  44.2093833   2.1231673  28.7600113  48.5453833   7.8341673
  28.2810113  48.8433833   7.1681673  28.4040113  47.7693833   8.0121673
  28.6370113  48.4743833   7.7621673  22.7570113  46.2633833   6.3961673
  21.9100113  46.0693833   6.4771673  23.0810113  46.0983833   7.1891673
  22.6790113  46.2103833   6.5251673  16.6050113  45.9563833   8.7121673
  17.3270113  46.4443833   8.6751673  16.3350113  45.9263833   7.8831673
  16.6720113  46.0243833   8.5841673  19.8350113  41.1273833   5.4471673
  20.6810113  40.9373833   5.5451673  19.4650113  40.3503833   5.3091673
  19.9050113  40.9843833   5.4411673  29.6910113  45.4873833   8.9531673
  29.6840113  44.7113833   9.3511673  28.8500113  45.7213833   8.9461673
  29.5660113  45.4073833   9.0111673  16.0000113  47.0083833  12.9901673
  15.5790113  46.4903833  12.4291673  15.6480113  47.7943833  12.8471673
  15.8860113  47.0483833  12.8861673  30.9470113  45.5583833   6.3901673
  30.6610113  45.9593833   7.1101673  31.8070113  45.4963833   6.5171673
  31.0320113  45.6083833   6.5151673  14.1160113  38.3303833   6.8341673
  14.1600113  38.6743833   6.0331673  14.8710113  38.5673833   7.2011673
  14.2340113  38.4163833   6.7701673  32.0780113  51.1913833   6.9191673
  32.3680113  51.4483833   6.1381673  32.7730113  51.2873833   7.4381673
  32.2240113  51.2433833   6.8801673  29.3690113  43.3703833  13.3711673
  29.6880113  44.1563833  13.5741673  28.9990113  43.1003833  14.1141673
  29.3620113  43.4463833  13.5111673  29.1650113  41.6283833   4.5601673
  28.4200113  41.3053833   4.8781673  29.1670113  42.4543833   4.8401673
  29.0550113  41.7023833   4.6481673  32.0670113  43.9123833  16.1061673
  32.0150113  43.5713833  15.3051673  32.8040113  44.3793833  16.0841673
  32.1680113  43.9313833  15.9841673  31.6050113  47.5883833  12.3121673
  32.2330113  47.0393833  12.0561673  31.5440113  48.1533833  11.6501673
  31.6890113  47.5913833  12.1761673  20.7390113  48.8193833   9.6081673
  20.4410113  49.4113833  10.1751673  20.7940113  49.2613833   8.8591673
  20.7030113  48.9723833   9.5811673  18.7180113  47.7693833  13.0061673
  17.9120113  47.4793833  13.1731673  18.6290113  48.6373833  13.0121673
  18.5860113  47.8543833  13.0311673  28.0770113  37.9583833  12.0211673
  28.8210113  38.4103833  11.9581673  27.5110113  38.4283833  11.5521673
  28.1040113  38.0953833  11.9431673  23.2550113  45.2423833   9.0991673
  23.7310113  45.6163833   9.7271673  22.4320113  45.3763833   9.3581673
  23.2040113  45.3173833   9.2301673  19.9650113  40.8453833  11.8401673
  20.1260113  40.1013833  12.2671673  19.9200113  40.5963833  11.0051673
  19.9820113  40.6983833  11.7801673  22.5190113  52.6353833   4.3271673
  23.0650113  53.3143833   4.3811673  22.1690113  52.7173833   3.5321673
  22.5480113  52.7483833   4.2171673  29.3620113  35.9383833   9.6911673
  29.0820113  36.7633833   9.6471673  30.0780113  35.9913833  10.1871673
  29.4270113  36.0683833   9.7581673  21.7170113  36.6533833  11.7201673
  22.4220113  36.9733833  11.3181673  21.9580113  35.8463833  11.9471673
  21.8560113  36.5813833  11.6941673  20.7020113  50.8633833   7.7161673
  20.0780113  51.4453833   7.5341673  20.9500113  50.5773833   6.9301673
  20.6460113  50.9073833   7.5731673  25.0110113  47.4973833  14.7051673
  25.7680113  47.7833833  14.3791673  24.4640113  47.5493833  14.0271673
  25.0420113  47.5473833  14.5561673  28.9200113  50.0473833  13.2091673
  29.2660113  50.3173833  13.9631673  29.2140113  50.6293833  12.6291673
  29.0150113  50.1733833  13.2351673  18.2260113  41.7063833   7.7811673
  18.6660113  41.6033833   7.0351673  18.7710113  41.3933833   8.3861673
  18.3710113  41.6453833   7.7601673  26.2420113  40.8083833  13.3731673
  25.5940113  41.2783833  13.7211673  26.8070113  40.7193833  14.0321673
  26.2300113  40.8643833  13.5221673  25.9300113  42.3453833   9.6711673
  26.2320113  42.7653833  10.3741673  25.9660113  41.5053833   9.9031673
  25.9800113  42.2833833   9.8091673  23.3550113  52.5123833  13.5961673
  23.8330113  51.9123833  13.1801673  23.0040113  52.0693833  14.2611673
  23.3740113  52.3583833  13.6331673  28.4780113  41.7923833   1.9231673
  28.6850113  41.5913833   2.7471673  29.2340113  42.0603833   1.5811673
  28.6200113  41.8023833   1.9941673  21.7730113  36.6913833   7.8281673
  20.9470113  36.5423833   8.0651673  21.7330113  36.7263833   6.9571673
  21.6450113  36.6743833   7.7341673  29.5000113  37.8753833   3.3971673
  28.7860113  37.4043833   3.5681673  29.3380113  38.2163833   2.6111673
  29.3710113  37.8563833   3.3061673  29.9430113  45.8193833   1.7771673
  30.4190113  45.0903833   1.7291673  29.1220113  45.5333833   1.7011673
  29.8920113  45.6693833   1.7581673  23.4140113  47.7313833  12.6161673
  22.6190113  47.6673833  12.9671673  23.4850113  48.5783833  12.4211673
  23.3070113  47.8463833  12.6391673  14.3380113  37.0893833  13.8631673
  14.1980113  37.8843833  13.5321673  13.5520113  36.8463833  14.1521673
  14.2010113  37.1713833  13.8571673  19.2440113  53.9383833   7.9331673
  19.2550113  53.9973833   8.8031673  18.8190113  53.1913833   7.7831673
  19.1830113  53.8363833   8.0391673  26.1590113  46.9863833   4.1321673
  26.2350113  47.3273833   4.9311673  26.3280113  46.1393833   4.2531673
  26.1950113  46.9113833   4.2681673  23.6810113  46.2603833   3.6971673
  23.3830113  45.9453833   4.4541673  24.3760113  46.7333833   3.9321673
  23.7400113  46.2833833   3.8441673  23.9030113  50.3783833  11.7241673
  24.5900113  50.2643833  12.2491673  24.0370113  51.1693833  11.3801673
  24.0240113  50.4783833  11.7511673  32.0790113  42.9873833  13.5351673
  31.2240113  42.8653833  13.6611673  32.2320113  42.5923833  12.7721673
  31.9750113  42.9103833  13.4411673  26.5920113  43.6523833  12.1111673
  26.3370113  42.9333833  12.5331673  27.4130113  43.7683833  12.3811673
  26.6760113  43.5633833  12.2131673  16.0080113  53.4363833  13.3751673
  15.3540113  52.8673833  13.4731673  15.6330113  54.2093833  13.5261673
  15.8560113  53.4663833  13.4121673  24.5260113  44.8423833  15.2981673
  24.8490113  45.5283833  14.8661673  23.8220113  45.1653833  15.7001673
  24.4690113  44.9913833  15.2931673  27.6100113  53.2163833   6.2271673
  27.1590113  53.8593833   6.6061673  28.3180113  53.1373833   6.7321673
  27.6480113  53.2993833   6.3581673  24.3110113  48.3063833   9.1571673
  23.6170113  48.7083833   9.5001673  24.9880113  48.7393833   9.4961673
  24.3080113  48.4293833   9.2581673  29.6880113  50.8993833  15.7371673
  30.4640113  50.5093833  15.8201673  29.2190113  50.5633833  16.3921673
  29.7330113  50.7923833  15.8461673  17.3790113  41.8443833  11.5041673
  17.7540113  42.4633833  11.0171673  18.0530113  41.3703833  11.7891673
  17.5340113  41.8663833  11.4741673  15.1540113  40.2923833  10.7791673
  15.2310113  40.1233833   9.9261673  15.9000113  40.6983833  10.9761673
  15.2750113  40.3273833  10.6821673  17.7080113  37.7023833  13.1901673
  17.6270113  36.8583833  13.3961673  17.3940113  37.7463833  12.3771673
  17.6500113  37.5843833  13.1001673  24.6330113  49.8973833   2.3261673
  24.4280113  50.7303833   2.1671673  23.8580113  49.5153833   2.4481673
  24.4880113  49.9643833   2.3211673  29.8150113  43.0783833  10.5751673
  29.8130113  42.2153833  10.6991673  29.8820113  43.4023833  11.3821673
  29.8250113  42.9983833  10.7121673  14.5510113  45.5183833  11.0031673
  14.8710113  45.7373833  10.2221673  14.4510113  44.6533833  10.9481673
  14.5830113  45.4233833  10.8801673  25.6940113  37.8783833  14.3571673
  25.7860113  38.5903833  14.8511673  25.0570113  37.4333833  14.7541673
  25.6130113  37.9173833  14.4891673  24.6880113  38.0683833   5.2111673
  23.9880113  38.5863833   5.1551673  24.7260113  37.6883833   4.4271673
  24.5900113  38.0893833   5.0871673  28.2860113  38.5843833   8.0111673
  29.1410113  38.6833833   8.1561673  27.9170113  39.1373833   8.5761673
  28.3580113  38.6813833   8.1161673  19.3140113  44.8103833  12.3881673
  18.9180113  45.5843833  12.4631673  18.9080113  44.4373833  11.7121673
  19.1960113  44.8693833  12.2991673  28.5900113  43.8643833   6.5021673
  29.2560113  44.4053833   6.6621673  28.2450113  44.1753833   5.7631673
  28.6370113  43.9903833   6.4171673  28.9030113  51.9303833   2.3091673
  28.7290113  51.2763833   2.8591673  29.6160113  51.6593833   1.8861673
  28.9830113  51.7933833   2.3281673  19.7430113  37.7873833   9.8381673
  18.8790113  37.8713833   9.9181673  19.9630113  37.2733833  10.5071673
  19.6480113  37.7243833   9.9491673  31.7610113  36.4223833  11.1671673
  31.7090113  36.3783833  12.0371673  32.4480113  35.9193833  10.9771673
  31.8550113  36.3423833  11.2671673  23.8460113  38.5353833   8.2121673
  23.1090113  38.0813833   8.3251673  24.4170113  38.1333833   8.7351673
  23.8210113  38.4083833   8.3061673  26.5780113  49.3833833  10.0001673
  26.7840113  49.6843833  10.7921673  26.5170113  50.1053833   9.5151673
  26.5990113  49.5343833  10.0451673  26.1120113  53.5973833  14.2461673
  25.3590113  53.5793833  13.8051673  26.2800113  54.4493833  14.3301673
  26.0260113  53.7203833  14.1931673  21.3490113  42.8643833  13.4161673
  21.0270113  42.2883833  12.8461673  20.9900113  43.6193833  13.1701673
  21.2490113  42.8903833  13.2961673  31.3900113  48.0223833   9.4581673
  31.3580113  47.1603833   9.3231673  30.6970113  48.3243833   9.0241673
  31.2830113  47.9393833   9.3741673  19.7840113  53.2203833  13.6641673
  19.8250113  53.3463833  14.5271673  20.4350113  52.6603833  13.5081673
  19.8860113  53.1563833  13.7691673  29.4950113  51.2823833   8.2551673
  30.0220113  51.1993833   7.5641673  29.1040113  50.5043833   8.3091673
  29.5150113  51.1553833   8.1611673  16.9630113  37.8703833  10.4861673
  16.6200113  37.1033833  10.2521673  16.2680113  38.3943833  10.5501673
  16.8100113  37.8343833  10.4611673  26.0090113  36.7263833   7.4631673
  26.6790113  37.2703833   7.5901673  25.5060113  37.1503833   6.8901673
  26.0340113  36.8693833   7.3971673  17.3770113  51.6033833  15.0241673
  17.9720113  52.0343833  15.4961673  17.0130113  52.2273833  14.5351673
  17.4110113  51.7593833  15.0211673  25.3680113  42.5343833   4.9561673
  25.9190113  41.9273833   5.2561673  24.9430113  42.7973833   5.6711673
  25.3870113  42.4833833   5.1051673  15.6160113  41.1843833   4.4421673
  15.2480113  41.4863833   5.1731673  16.1500113  40.5553833   4.7261673
  15.6400113  41.1363833   4.5921673  15.3040113  49.5923833  11.9531673
  14.7300113  50.0083833  12.4621673  16.0370113  50.0573833  12.0481673
  15.3280113  49.7223833  12.0421673  30.6120113  45.7383833  14.6691673
  31.2460113  45.5683833  15.2431673  31.0290113  46.1413833  14.0171673
  30.7670113  45.7733833  14.6581673  31.2370113  40.3023833  15.4071673
  31.0410113  40.9463833  15.9621673  30.5150113  39.8123833  15.3991673
  31.1020113  40.3253833  15.4881673  31.1360113  41.2433833   8.3781673
  30.3030113  41.4933833   8.3061673  31.0800113  40.4033833   8.6071673
  31.0050113  41.1563833   8.4011673  20.3960113  38.2313833  13.5721673
  20.6300113  37.6553833  12.9591673  19.5540113  38.0503833  13.7131673
  20.3060113  38.1193833  13.5021673  28.0230113  45.8493833  16.0241673
  28.8940113  45.8133833  15.9881673  27.8040113  46.2693833  15.2921673
  28.1200113  45.9053833  15.9111673  17.7770113  51.6743833   7.2051673
  17.6980113  50.8643833   6.8891673  17.3330113  52.1613833   6.6331673
  17.7000113  51.6263833   7.0741673  15.3490113  53.9183833  10.7861673
  15.8420113  53.8623833  11.5041673  15.5370113  53.1853833  10.3511673
  15.4500113  53.8013833  10.8281673  24.7870113  17.9562753  78.9581313
  24.5420113  18.4442753  78.2781313  25.6500113  17.8832753  78.8581313
  24.8780113  18.0172753  78.8431313  24.5960113  24.8722753  83.6291313
  24.0720113  25.4682753  83.9921313  24.9930113  24.5042753  84.3131313
  24.5770113  24.9062753  83.7841313  14.4650113  29.0122753  79.0851313
  14.0240113  29.1302753  79.8281313  14.1820113  28.2372753  78.8001313
  14.3580113  28.9152753  79.1531313  30.7400113  32.3132753  76.6001313
  31.4410113  31.7942753  76.5961313  30.1530113  31.8682753  76.1311313
  30.7570113  32.1702753  76.5301313  14.2080113  22.8042753  75.5921313
  13.4300113  22.9662753  75.2321313  14.2470113  21.9332753  75.6141313
  14.0990113  22.6992753  75.5421313  17.3470113  28.0672753  74.2641313
  16.9550113  27.6962753  73.5781313  17.2670113  27.4692753  74.8931313
  17.2770113  27.9242753  74.2551313  27.2670113  25.9392753  80.3051313
  27.3470113  25.9432753  79.4361313  26.6830113  25.3072753  80.4541313
  27.1920113  25.8462753  80.1991313  16.9740113  29.7082753  78.1641313
  17.5820113  29.5382753  78.7671313  16.2230113  29.5682753  78.5851313
  16.9530113  29.6622753  78.3151313  21.2560113  19.0432753  78.1131313
  21.1860113  19.7202753  77.5671313  21.9970113  18.6552753  77.8641313
  21.3550113  19.0862753  77.9951313  15.8650113  32.7992753  74.2411313
  16.3320113  32.8832753  73.5091313  16.3200113  32.2212753  74.7101313
  16.0010113  32.7262753  74.2021313  14.4050113  31.7472753  85.3401313
  14.5340113  31.4672753  86.1561313  13.7950113  31.2062753  85.0311313
  14.3340113  31.6262753  85.4151313  15.8510113  26.2682753  79.5421313
  15.3890113  25.8762753  78.9151313  16.5510113  25.7552753  79.6341313
  15.8860113  26.1352753  79.4631313  20.3590113  21.8782753  84.8891313
  21.0370113  21.8962753  84.3401313  20.3140113  21.0422753  85.1341313
  20.4520113  21.7572753  84.8441313  20.9610113  32.4642753  87.6701313
  21.0990113  33.2242753  87.2631313  21.7520113  32.0992753  87.6971313
  21.0980113  32.5232753  87.6141313  17.8520113  24.3682753  79.5651313
  18.6690113  24.1812753  79.8081313  17.3750113  23.7542753  79.9611313
  17.9020113  24.2502753  79.6601313  22.0560113  30.3492753  82.1751313
  22.4040113  29.5502753  82.2051313  22.7210113  30.8532753  81.9201313
  22.2060113  30.3052753  82.1421313  22.1130113  29.7982753  78.3861313
  22.4440113  29.1542753  78.8721313  22.3530113  29.5872753  77.5751313
  22.1970113  29.6722753  78.3381313  18.4490113  19.4622753  78.8311313
  18.1530113  19.9632753  78.1811313  19.3160113  19.5402753  78.7741313
  18.5330113  19.5482753  78.7271313  21.4280113  18.6042753  81.0541313
  21.5010113  19.4642753  81.1831313  21.3900113  18.5292753  80.1861313
  21.4330113  18.7202753  80.9451313  26.1010113  21.5302753  73.3531313
  25.6510113  22.2112753  73.6601313  26.2150113  21.0262753  74.0561313
  26.0520113  21.5562753  73.5021313  14.3070113  24.0292753  82.5551313
  14.0510113  24.8602753  82.4801313  13.6430113  23.6462753  82.9721313
  14.1710113  24.0952753  82.6061313  14.2170113  33.7392753  80.4551313
  13.6250113  34.2972753  80.1421313  14.6430113  33.4702753  79.7431313
  14.1930113  33.7812753  80.3041313  20.0570113  31.5832753  77.9351313
  19.4780113  31.3082753  78.5271313  20.6810113  30.9742753  77.9601313
  20.0640113  31.4532753  78.0261313  26.2000113  33.8712753  75.4571313
  26.9270113  34.3432753  75.5591313  26.4290113  33.0772753  75.7371313
  26.3420113  33.8242753  75.5141313  24.3680113  34.2632753  77.4471313
  24.5820113  34.7902753  78.1091313  25.1350113  34.0892753  77.0681313
  24.5130113  34.3152753  77.4891313  17.3360113  18.8462753  83.0461313
  16.8150113  18.2182753  82.7381313  17.9270113  18.4092753  83.5171313
  17.3470113  18.6882753  83.0701313  15.7620113  32.4092753  78.3861313
  16.4180113  31.8342753  78.4011313  16.1510113  33.1582753  78.1651313
  15.9170113  32.4342753  78.3561313  31.4950113  21.5032753  79.6481313
  31.1490113  22.1812753  80.0741313  30.8590113  20.9052753  79.6641313
  31.3500113  21.5152753  79.7131313  26.8070113  34.2732753  85.7521313
  27.5510113  34.7292753  85.7421313  26.6860113  34.0592753  84.9151313
  26.8990113  34.3092753  85.6271313  16.5800113  30.8962753  81.8861313
  17.0030113  30.5402753  81.2121313  16.9040113  30.4742753  82.5781313
  16.6900113  30.7812753  81.8891313  19.8110113  33.7482753  81.1821313
  20.6550113  33.8522753  80.9871313  19.5140113  34.5662753  81.2501313
  19.8920113  33.8842753  81.1631313  23.6180113  23.1452753  79.2691313
  23.9050113  22.9132753  78.4791313  24.3500113  23.2242753  79.7381313
  23.7680113  23.1222753  79.2221313  24.3400113  23.4842753  74.3901313
  24.6210113  24.2722753  74.6391313  23.5640113  23.6492753  74.0271313
  24.2670113  23.6252753  74.3731313  28.3810113  35.4582753  75.8571313
  29.0460113  35.3102753  75.3121313  28.7410113  35.3752753  76.6471313
  28.5330113  35.4242753  75.8931313  18.8090113  34.9672753  86.9221313
  19.1010113  34.9002753  87.7421313  18.1830113  34.3622753  86.8771313
  18.7600113  34.8682753  87.0371313  31.1700113  19.8262753  85.0171313
  31.9270113  19.8982753  84.5891313  31.2330113  19.0532753  85.4161313
  31.2910113  19.7232753  85.0121313  23.1990113  31.6552753  74.2061313
  23.0180113  32.2002753  74.8631313  23.9650113  31.9452753  73.9051313
  23.2850113  31.7792753  74.2591313  26.7060113  19.5512753  75.2601313
  27.2460113  18.8692753  75.3361313  26.7680113  19.9492753  76.0341313
  26.7950113  19.5092753  75.3861313  14.6600113  20.7192753  77.8291313
  14.5460113  19.8552753  77.8601313  14.1850113  21.0132753  78.4991313
  14.5730113  20.6352753  77.9321313  16.8020113  33.1292753  86.0441313
  16.1040113  32.6212753  86.1701313  17.0620113  32.9242753  85.2361313
  16.7370113  33.0242753  85.9431313  23.9640113  21.9272753  76.5741313
  23.4560113  21.2652753  76.3201313  24.0160113  22.4312753  75.8641313
  23.8970113  21.9042753  76.4321313  24.5130113  34.6222753  86.9541313
  25.2810113  34.5422753  86.5481313  23.9300113  34.5012753  86.3161313
  24.5400113  34.5922753  86.8001313  23.9640113  18.8682753  76.4651313
  23.5090113  18.4662753  75.8391313  24.7370113  19.0232753  76.0901313
  24.0110113  18.8322753  76.3171313  30.7900113  35.2252753  79.8551313
  30.3350113  35.9422753  80.0561313  30.1760113  34.6542753  79.6131313
  30.6320113  35.2472753  79.8491313  22.5620113  21.2352753  80.9871313
  22.6360113  21.8032753  80.3291313  22.6830113  21.7272753  81.6971313
  22.5900113  21.3922753  80.9951313  27.7870113  31.0702753  79.3991313
  28.4880113  30.5882753  79.5881313  27.1270113  30.5012753  79.4441313
  27.7930113  30.9152753  79.4331313  17.1700113  17.0582753  79.3351313
  17.7060113  17.7462753  79.3251313  17.1730113  16.7842753  78.5071313
  17.2490113  17.1192753  79.2111313  20.1260113  27.4912753  83.3601313
  20.2980113  27.2812753  84.1891313  19.4710113  26.9572753  83.1441313
  20.0550113  27.3812753  83.4511313  26.3540113  21.4052753  86.8751313
  26.2590113  21.7242753  87.6811313  25.7610113  20.7662753  86.8371313
  26.2520113  21.3572753  86.9891313  20.8760113  27.4292753  85.9501313
  20.9290113  28.2762753  86.1521313  20.5910113  27.0592753  86.6871313
  20.8420113  27.4992753  86.0881313  27.0530113  28.1242753  85.0801313
  26.5390113  27.7122753  85.6511313  26.9270113  28.9682753  85.2611313
  26.9590113  28.1882753  85.1911313  27.6100113  17.3492753  79.7111313
  27.6590113  17.0312753  80.5221313  27.9330113  16.7052753  79.2181313
  27.6650113  17.2072753  79.7581313  17.6180113  20.8682753  80.9891313
  17.8900113  20.4382753  80.2811313  17.4420113  20.2322753  81.5601313
  17.6320113  20.7112753  80.9691313  30.3060113  28.5632753  75.2071313
  30.4250113  28.2762753  76.0221313  31.1130113  28.5842753  74.8771313
  30.4420113  28.5242753  75.2791313  17.4420113  28.2952753  80.5381313
  18.2930113  28.2152753  80.3651313  17.0850113  27.6132753  80.1261313
  17.5150113  28.1822753  80.4511313  16.2090113  35.0202753  81.7751313
  15.5360113  34.5222753  81.5301313  16.6120113  35.2052753  81.0241313
  16.1690113  34.9742753  81.6281313  15.7590113  21.9702753  84.0711313
  16.6020113  22.1902753  84.0281313  15.3700113  22.5432753  83.5401313
  15.8260113  22.0872753  83.9861313  28.2010113  25.1002753  74.7921313
  27.9810113  25.8312753  74.3701313  27.7530113  25.1512753  75.5391313
  28.1020113  25.2152753  74.8401313  19.8100113  28.3022753  78.7731313
  20.5230113  28.7972753  78.8631313  20.0320113  27.7352753  78.1471313
  19.9480113  28.2912753  78.6941313  32.3880113  19.9612753  74.2451313
  31.7260113  19.3932753  74.2681313  32.1950113  20.4732753  73.5651313
  32.2620113  19.9532753  74.1481313  13.9660113  29.9452753  82.0931313
  13.2990113  30.4332753  82.3691313  14.6460113  30.4902753  82.1221313
  13.9680113  30.0972753  82.1381313  32.7110113  24.3392753  86.8011313
  32.9260113  23.5392753  86.5251313  31.8610113  24.3992753  86.6121313
  32.6170113  24.2302753  86.7321313  14.0320113  26.6292753  77.1961313
  13.8470113  25.7902753  77.3481313  14.6910113  26.5932753  76.6261313
  14.1020113  26.5002753  77.1341313  30.3900113  19.5192753  76.5241313
  31.1360113  19.1122753  76.7231313  30.6530113  20.2342753  76.0991313
  30.5390113  19.5652753  76.4911313  24.3330113  32.0052753  81.1001313
  23.8100113  32.6392753  80.8071313  24.6430113  31.6412753  80.3711313
  24.3010113  32.0452753  80.9491313  14.2040113  30.7932753  76.7711313
  14.7560113  31.3622753  77.1351313  13.9720113  30.2782753  77.4361313
  14.2510113  30.8012753  76.9231313  18.4080113  29.7932753  83.8601313
  18.8750113  30.0822753  84.5381313  18.9800113  29.3152753  83.4061313
  18.5620113  29.7652753  83.8931313  26.8440113  21.8072753  81.5971313
  27.1880113  21.9592753  82.3841313  26.3910113  21.0692753  81.7101313
  26.8280113  21.7202753  81.7301313  14.0340113  29.2422753  74.3991313
  14.7900113  28.8102753  74.4571313  14.0490113  29.7742753  75.0901313
  14.1480113  29.2572753  74.5101313  14.9740113  27.4632753  82.4041313
  15.4050113  27.3342753  81.6571313  14.7690113  28.3112753  82.3781313
  15.0070113  27.5692753  82.2901313  21.3200113  21.0272753  76.0541313
  21.3180113  20.9102753  75.1891313  21.1390113  21.8752753  76.1461313
  21.2930113  21.1352753  75.9401313  30.3740113  33.4542753  87.5511313
  29.7030113  33.9682753  87.7691313  30.4370113  33.5542753  86.6871313
  30.2840113  33.5452753  87.4561313  19.0580113  30.9792753  80.6861313
  19.1840113  31.8222753  80.8731313  19.7260113  30.5802753  81.0821313
  19.1760113  31.0452753  80.7721313  17.6730113  23.8592753  75.6881313
  17.5450113  23.4112753  76.4261313  17.0910113  23.5172753  75.1361313
  17.5680113  23.7422753  75.7161313  17.8400113  25.6892753  82.2871313
  17.0590113  25.6302753  81.9041313  17.9120113  24.9372753  82.7241313
  17.7350113  25.5702753  82.2951313  18.2700113  25.4262753  85.7551313
  18.2950113  24.7512753  85.2041313  17.6240113  25.9222753  85.4431313
  18.1790113  25.3992753  85.6281313  28.1650113  23.1392753  84.1511313
  27.5030113  23.4672753  84.6141313  28.3520113  23.7732753  83.5821313
  28.0950113  23.2812753  84.1351313  22.3700113  34.2032753  85.1471313
  22.0930113  33.5622753  84.6241313  22.1620113  34.9292753  84.7091313
  22.2990113  34.2162753  85.0051313  26.3580113  21.1082753  77.6621313
  26.8480113  21.8252753  77.5851313  25.5680113  21.3692753  77.3991313
  26.3140113  21.2522753  77.6121313  22.9400113  22.5782753  83.3871313
  23.4200113  23.2772753  83.5951313  23.3130113  21.9312753  83.8381313
  23.0660113  22.5862753  83.4841313  25.1290113  25.7472753  75.6611313
  25.1210113  26.4692753  75.1711313  24.4900113  25.8822753  76.2381313
  25.0340113  25.8742753  75.6741313  30.1010113  29.6172753  79.6421313
  30.4570113  29.2672753  80.3571313  30.0930113  28.9562753  79.0721313
  30.1530113  29.4672753  79.6631313  26.1460113  32.6832753  83.4861313
  25.5430113  32.3872753  82.9291313  26.6910113  33.1352753  82.9771313
  26.1370113  32.7062753  83.3281313  26.1590113  29.5342753  82.8861313
  25.3620113  29.7582753  83.1601313  26.4170113  28.9402753  83.4711313
  26.0790113  29.4792753  83.0131313  20.0510113  34.3462753  77.3341313
  19.9040113  33.5702753  77.7051313  20.7400113  34.1992753  76.8191313
  20.1310113  34.2092753  77.3131313  19.7220113  18.0892753  75.3221313
  19.8190113  17.9822753  76.1831313  19.0140113  18.5952753  75.2571313
  19.6320113  18.1482753  75.4401313  22.3430113  33.8622753  75.7361313
  22.9650113  34.0252753  76.3261313  22.3790113  34.5532753  75.2041313
  22.4400113  33.9882753  75.7451313  29.4190113  27.5322753  87.7321313
  29.4740113  27.6572753  86.8701313  30.1720113  27.8522753  88.0341313
  29.5380113  27.5972753  87.6491313  16.8440113  26.3962753  76.5651313
  17.1680113  25.6172753  76.3431313  17.4900113  26.7642753  77.0201313
  16.9870113  26.3352753  76.5991313  25.1500113  27.3382753  87.3321313
  24.9950113  27.9482753  87.9361313  25.6840113  26.7802753  87.7381313
  25.2060113  27.3462753  87.4811313  13.8410113  18.0572753  77.5331313
  13.9700113  17.3492753  77.0411313  13.4740113  17.7392753  78.2581313
  13.8060113  17.9052753  77.5681313  23.5340113  25.7382753  77.9901313
  23.5930113  26.3882753  78.5691313  23.3450113  25.0422753  78.4811313
  23.5150113  25.7312753  78.1481313  28.7600113  30.0672753  83.8591313
  28.2810113  30.3652753  83.1931313  28.4040113  29.2912753  84.0371313
  28.6370113  29.9962753  83.7871313  18.0300113  20.2552753  74.5021313
  17.5190113  20.3082753  73.7961313  18.8140113  20.4952753  74.2061313
  18.0700113  20.2982753  74.3541313  22.7570113  27.7852753  82.4211313
  21.9100113  27.5912753  82.5021313  23.0810113  27.6202753  83.2141313
  22.6790113  27.7322753  82.5501313  19.5090113  34.5152753  73.3071313
  19.9480113  33.8182753  73.5951313  19.7160113  35.1392753  73.8801313
  19.6050113  34.5042753  73.4341313  16.6050113  27.4782753  84.7371313
  17.3270113  27.9662753  84.7001313  16.3350113  27.4482753  83.9081313
  16.6720113  27.5462753  84.6091313  19.8350113  22.6492753  81.4721313
  20.6810113  22.4592753  81.5701313  19.4650113  21.8722753  81.3341313
  19.9050113  22.5062753  81.4661313  32.4520113  34.2332753  75.7991313
  33.1460113  33.7662753  75.5511313  31.9130113  33.6352753  76.1361313
  32.4750113  34.0752753  75.8121313  14.6560113  23.9872753  78.1271313
  15.1450113  23.6952753  78.7881313  14.7850113  23.3942753  77.5001313
  14.7470113  23.8562753  78.1321313  29.6910113  27.0092753  84.9781313
  29.6840113  26.2332753  85.3761313  28.8500113  27.2432753  84.9711313
  29.5660113  26.9292753  85.0361313  19.1810113  25.4212753  73.6131313
  18.5710113  25.0162753  74.0871313  18.7950113  25.5392753  72.8401313
  19.0340113  25.3782753  73.5691313  30.9470113  27.0802753  82.4151313
  30.6610113  27.4812753  83.1351313  31.8070113  27.0182753  82.5421313
  31.0320113  27.1302753  82.5401313  20.6360113  23.8822753  76.3231313
  20.9080113  24.7082753  76.3901313  19.7730113  23.9572753  76.2271313
  20.5490113  24.0152753  76.3181313  14.1160113  19.8522753  82.8591313
  14.1600113  20.1962753  82.0581313  14.8710113  20.0892753  83.2261313
  14.2340113  19.9382753  82.7951313  32.0780113  32.7132753  82.9441313
  32.3680113  32.9702753  82.1631313  32.7730113  32.8092753  83.4631313
  32.2240113  32.7652753  82.9051313  28.6830113  31.3162753  74.9261313
  29.0170113  30.5102753  74.9611313  27.9280113  31.2442753  75.3561313
  28.6210113  31.1862753  74.9951313  29.1650113  23.1502753  80.5851313
  28.4200113  22.8272753  80.9031313  29.1670113  23.9762753  80.8651313
  29.0550113  23.2242753  80.6731313  26.0570113  29.1912753  74.3291313
  26.7410113  28.6772753  74.1601313  25.6400113  29.2372753  73.5641313
  26.0960113  29.1222753  74.1911313  20.7390113  30.3412753  85.6331313
  20.4410113  30.9332753  86.2001313  20.7940113  30.7832753  84.8841313
  20.7030113  30.4942753  85.6061313  28.0770113  19.4802753  88.0461313
  28.8210113  19.9322753  87.9831313  27.5110113  19.9502753  87.5771313
  28.1040113  19.6172753  87.9681313  23.2550113  26.7642753  85.1241313
  23.7310113  27.1382753  85.7521313  22.4320113  26.8982753  85.3831313
  23.2040113  26.8392753  85.2551313  22.5190113  34.1572753  80.3521313
  23.0650113  34.8362753  80.4061313  22.1690113  34.2392753  79.5571313
  22.5480113  34.2702753  80.2421313  29.3620113  17.4602753  85.7161313
  29.0820113  18.2852753  85.6721313  30.0780113  17.5132753  86.2121313
  29.4270113  17.5902753  85.7831313  21.7170113  18.1752753  87.7451313
  22.4220113  18.4952753  87.3431313  21.9580113  17.3682753  87.9721313
  21.8560113  18.1032753  87.7191313  20.7020113  32.3852753  83.7411313
  20.0780113  32.9672753  83.5591313  20.9500113  32.0992753  82.9551313
  20.6460113  32.4292753  83.5981313  30.7830113  23.7152753  74.5731313
  31.1610113  24.3922753  74.1731313  29.9410113  23.9392753  74.6041313
  30.7140113  23.8482753  74.5181313  22.2960113  27.1612753  73.6561313
  21.4910113  26.9842753  73.3711313  22.2630113  28.0122753  73.8481313
  22.1720113  27.2602753  73.6431313  18.2260113  23.2282753  83.8061313
  18.6660113  23.1252753  83.0601313  18.7710113  22.9152753  84.4111313
  18.3710113  23.1672753  83.7851313  25.9300113  23.8672753  85.6961313
  26.2320113  24.2872753  86.3991313  25.9660113  23.0272753  85.9281313
  25.9800113  23.8052753  85.8341313  28.4780113  23.3142753  77.9481313
  28.6850113  23.1132753  78.7721313  29.2340113  23.5822753  77.6061313
  28.6200113  23.3242753  78.0191313  21.7730113  18.2132753  83.8531313
  20.9470113  18.0642753  84.0901313  21.7330113  18.2482753  82.9821313
  21.6450113  18.1962753  83.7591313  29.5000113  19.3972753  79.4221313
  28.7860113  18.9262753  79.5931313  29.3380113  19.7382753  78.6361313
  29.3710113  19.3782753  79.3311313  29.9430113  27.3412753  77.8021313
  30.4190113  26.6122753  77.7541313  29.1220113  27.0552753  77.7261313
  29.8920113  27.1912753  77.7831313  19.2440113  35.4602753  83.9581313
  19.2550113  35.5192753  84.8281313  18.8190113  34.7132753  83.8081313
  19.1830113  35.3582753  84.0641313  17.4020113  21.3552753  77.1131313
  17.5280113  21.0262753  76.3151313  16.5900113  21.1062753  77.3121313
  17.3010113  21.2702753  77.0251313  26.1590113  28.5082753  80.1571313
  26.2350113  28.8492753  80.9561313  26.3280113  27.6612753  80.2781313
  26.1950113  28.4332753  80.2931313  23.6810113  27.7822753  79.7221313
  23.3830113  27.4672753  80.4791313  24.3760113  28.2552753  79.9571313
  23.7400113  27.8052753  79.8691313  27.6100113  34.7382753  82.2521313
  27.1590113  35.3812753  82.6311313  28.3180113  34.6592753  82.7571313
  27.6480113  34.8212753  82.3831313  24.3110113  29.8282753  85.1821313
  23.6170113  30.2302753  85.5251313  24.9880113  30.2612753  85.5211313
  24.3080113  29.9512753  85.2831313  17.3790113  23.3662753  87.5291313
  17.7540113  23.9852753  87.0421313  18.0530113  22.8922753  87.8141313
  17.5340113  23.3882753  87.4991313  15.1540113  21.8142753  86.8041313
  15.2310113  21.6452753  85.9511313  15.9000113  22.2202753  87.0011313
  15.2750113  21.8492753  86.7071313  30.7130113  24.4542753  77.2441313
  30.8160113  24.3962753  76.3801313  31.4540113  24.1222753  77.5621313
  30.8380113  24.3972753  77.1631313  24.6330113  31.4192753  78.3511313
  24.4280113  32.2522753  78.1921313  23.8580113  31.0372753  78.4731313
  24.4880113  31.4862753  78.3461313  29.8150113  24.6002753  86.6001313
  29.8130113  23.7372753  86.7241313  29.8820113  24.9242753  87.4071313
  29.8250113  24.5202753  86.7371313  14.5510113  27.0402753  87.0281313
  14.8710113  27.2592753  86.2471313  14.4510113  26.1752753  86.9731313
  14.5830113  26.9452753  86.9051313  16.0070113  22.9762753  73.6461313
  15.3350113  22.9902753  74.2021313  16.1020113  22.1282753  73.4621313
  15.9220113  22.8532753  73.7011313  24.6880113  19.5902753  81.2361313
  23.9880113  20.1082753  81.1801313  24.7260113  19.2102753  80.4521313
  24.5900113  19.6112753  81.1121313  19.9950113  31.6812753  74.7601313
  20.4360113  31.7612753  75.5081313  19.1900113  31.4652753  75.0181313
  19.9410113  31.6612753  74.9091313  28.2860113  20.1062753  84.0361313
  29.1410113  20.2052753  84.1811313  27.9170113  20.6592753  84.6011313
  28.3580113  20.2032753  84.1411313  28.5900113  25.3862753  82.5271313
  29.2560113  25.9272753  82.6871313  28.2450113  25.6972753  81.7881313
  28.6370113  25.5122753  82.4421313  28.9030113  33.4522753  78.3341313
  28.7290113  32.7982753  78.8841313  29.6160113  33.1812753  77.9111313
  28.9830113  33.3152753  78.3531313  17.3240113  30.7512753  75.3611313
  17.0800113  30.4442753  76.1411313  17.2910113  30.0482753  74.8451313
  17.2830113  30.6022753  75.4001313  20.1430113  28.9962753  74.1041313
  19.3250113  28.7282753  74.2441313  20.1150113  29.8482753  74.2891313
  20.0180113  29.0832753  74.1521313  19.7430113  19.3092753  85.8631313
  18.8790113  19.3932753  85.9431313  19.9630113  18.7952753  86.5321313
  19.6480113  19.2462753  85.9741313  31.7610113  17.9442753  87.1921313
  31.7090113  17.9002753  88.0621313  32.4480113  17.4412753  87.0021313
  31.8550113  17.8642753  87.2921313  23.8460113  20.0572753  84.2371313
  23.1090113  19.6032753  84.3501313  24.4170113  19.6552753  84.7601313
  23.8210113  19.9302753  84.3311313  26.5780113  30.9052753  86.0251313
  26.7840113  31.2062753  86.8171313  26.5170113  31.6272753  85.5401313
  26.5990113  31.0562753  86.0701313  22.1450113  17.6382753  74.0681313
  22.2230113  17.8852753  73.2351313  21.4020113  18.0152753  74.3261313
  22.0470113  17.7302753  73.9831313  31.3900113  29.5442753  85.4831313
  31.3580113  28.6822753  85.3481313  30.6970113  29.8462753  85.0491313
  31.2830113  29.4612753  85.3991313  29.4950113  32.8042753  84.2801313
  30.0220113  32.7212753  83.5891313  29.1040113  32.0262753  84.3341313
  29.5150113  32.6772753  84.1861313  16.9630113  19.3922753  86.5111313
  16.6200113  18.6252753  86.2771313  16.2680113  19.9162753  86.5751313
  16.8100113  19.3562753  86.4861313  26.0090113  18.2482753  83.4881313
  26.6790113  18.7922753  83.6151313  25.5060113  18.6722753  82.9151313
  26.0340113  18.3912753  83.4221313  25.3680113  24.0562753  80.9811313
  25.9190113  23.4492753  81.2811313  24.9430113  24.3192753  81.6961313
  25.3870113  24.0052753  81.1301313  15.6160113  22.7062753  80.4671313
  15.2480113  23.0082753  81.1981313  16.1500113  22.0772753  80.7511313
  15.6400113  22.6582753  80.6171313  27.3380113  25.8872753  77.5431313
  27.4060113  25.0372753  77.7241313  26.5150113  25.9732753  77.2651313
  27.2260113  25.7742753  77.5291313  17.0900113  34.3812753  76.7531313
  16.9450113  34.5372753  75.9071313  17.9560113  34.4602753  76.8311313
  17.1970113  34.4162753  76.6401313  21.2570113  26.7782753  76.4811313
  21.3570113  26.9172753  75.6261313  22.0750113  26.7182753  76.7771313
  21.3920113  26.7892753  76.3981313  30.4170113  34.8422753  73.9611313
  31.0540113  34.7082753  74.5421313  30.0760113  34.0482753  73.8441313
  30.4610113  34.7052753  74.0291313  26.4920113  31.1072753  76.2831313
  26.2410113  30.9792753  77.1091313  26.1750113  30.4122753  75.8621313
  26.4080113  30.9862753  76.3431313  31.1360113  22.7652753  84.4031313
  30.3030113  23.0152753  84.3311313  31.0800113  21.9252753  84.6321313
  31.0050113  22.6782753  84.4261313  17.7770113  33.1962753  83.2301313
  17.6980113  32.3862753  82.9141313  17.3330113  33.6832753  82.6581313
  17.7000113  33.1482753  83.0991313  23.3780113  29.3152753  75.7131313
  24.0950113  28.9682753  75.3571313  23.3440113  30.1152753  75.3651313
  23.4790113  29.3822753  75.6091313  15.3490113  35.4402753  86.8111313
  15.8420113  35.3842753  87.5291313  15.5370113  34.7072753  86.3761313
  15.4500113  35.3232753  86.8531313  24.7870113  17.9562753  59.9518903
  24.5420113  18.4442753  59.2718903  25.6500113  17.8832753  59.8518903
  24.8780113  18.0172753  59.8368903  24.5960113  24.8722753  64.6228903
  24.0720113  25.4682753  64.9858903  24.9930113  24.5042753  65.3068903
  24.5770113  24.9062753  64.7778903  14.4650113  29.0122753  60.0788903
  14.0240113  29.1302753  60.8218903  14.1820113  28.2372753  59.7938903
  14.3580113  28.9152753  60.1468903  14.2080113  22.8042753  56.5858903
  13.4300113  22.9662753  56.2258903  14.2470113  21.9332753  56.6078903
  14.0990113  22.6992753  56.5358903  17.3470113  28.0672753  55.2578903
  16.9550113  27.6962753  54.5718903  17.2670113  27.4692753  55.8868903
  17.2770113  27.9242753  55.2488903  27.2670113  25.9392753  61.2988903
  27.3470113  25.9432753  60.4298903  26.6830113  25.3072753  61.4478903
  27.1920113  25.8462753  61.1928903  16.9740113  29.7082753  59.1578903
  17.5820113  29.5382753  59.7608903  16.2230113  29.5682753  59.5788903
  16.9530113  29.6622753  59.3088903  21.2560113  19.0432753  59.1068903
  21.1860113  19.7202753  58.5608903  21.9970113  18.6552753  58.8578903
  21.3550113  19.0862753  58.9888903  15.8650113  32.7992753  55.2348903
  16.3320113  32.8832753  54.5028903  16.3200113  32.2212753  55.7038903
  16.0010113  32.7262753  55.1958903  14.4050113  31.7472753  66.3338903
  14.5340113  31.4672753  67.1498903  13.7950113  31.2062753  66.0248903
  14.3340113  31.6262753  66.4088903  20.9790113  29.2722753  71.4008903
  20.7430113  29.2692753  72.2408903  20.2310113  29.1242753  70.9768903
  20.8330113  29.2492753  71.4618903  15.8510113  26.2682753  60.5358903
  15.3890113  25.8762753  59.9088903  16.5510113  25.7552753  60.6278903
  15.8860113  26.1352753  60.4568903  20.3590113  21.8782753  65.8828903
  21.0370113  21.8962753  65.3338903  20.3140113  21.0422753  66.1278903
  20.4520113  21.7572753  65.8378903  20.9610113  32.4642753  68.6638903
  21.0990113  33.2242753  68.2568903  21.7520113  32.0992753  68.6908903
  21.0980113  32.5232753  68.6078903  17.8520113  24.3682753  60.5588903
  18.6690113  24.1812753  60.8018903  17.3750113  23.7542753  60.9548903
  17.9020113  24.2502753  60.6538903  22.0560113  30.3492753  63.1688903
  22.4040113  29.5502753  63.1988903  22.7210113  30.8532753  62.9138903
  22.2060113  30.3052753  63.1358903  22.1130113  29.7982753  59.3798903
  22.4440113  29.1542753  59.8658903  22.3530113  29.5872753  58.5688903
  22.1970113  29.6722753  59.3318903  24.0810113  23.9292753  70.7188903
  23.2330113  23.8302753  70.5408903  24.1100113  24.6742753  71.1728903
  23.9600113  24.0252753  70.7598903  18.4490113  19.4622753  59.8248903
  18.1530113  19.9632753  59.1748903  19.3160113  19.5402753  59.7678903
  18.5330113  19.5482753  59.7208903  28.6390113  16.8892753  69.8328903
  28.4810113  17.6582753  69.4508903  27.8670113  16.6692753  70.1768903
  28.5010113  16.9702753  69.8278903  21.4280113  18.6042753  62.0478903
  21.5010113  19.4642753  62.1768903  21.3900113  18.5292753  61.1798903
  21.4330113  18.7202753  61.9388903  26.1010113  21.5302753  54.3468903
  25.6510113  22.2112753  54.6538903  26.2150113  21.0262753  55.0498903
  26.0520113  21.5562753  54.4958903  14.3070113  24.0292753  63.5488903
  14.0510113  24.8602753  63.4738903  13.6430113  23.6462753  63.9658903
  14.1710113  24.0952753  63.5998903  14.2170113  33.7392753  61.4488903
  13.6250113  34.2972753  61.1358903  14.6430113  33.4702753  60.7368903
  14.1930113  33.7812753  61.2978903  20.0570113  31.5832753  58.9288903
  19.4780113  31.3082753  59.5208903  20.6810113  30.9742753  58.9538903
  20.0640113  31.4532753  59.0198903  26.2000113  33.8712753  56.4508903
  26.9270113  34.3432753  56.5528903  26.4290113  33.0772753  56.7308903
  26.3420113  33.8242753  56.5078903  24.3680113  34.2632753  58.4408903
  24.5820113  34.7902753  59.1028903  25.1350113  34.0892753  58.0618903
  24.5130113  34.3152753  58.4828903  17.3360113  18.8462753  64.0398903
  16.8150113  18.2182753  63.7318903  17.9270113  18.4092753  64.5108903
  17.3470113  18.6882753  64.0638903  20.6420113  20.9792753  73.3378903
  20.7590113  20.5252753  72.6018903  20.9300113  21.7772753  73.1348903
  20.7020113  21.0302753  73.1988903  15.7620113  32.4092753  59.3798903
  16.4180113  31.8342753  59.3948903  16.1510113  33.1582753  59.1588903
  15.9170113  32.4342753  59.3498903  31.4950113  21.5032753  60.6418903
  31.1490113  22.1812753  61.0678903  30.8590113  20.9052753  60.6578903
  31.3500113  21.5152753  60.7068903  26.8070113  34.2732753  66.7458903
  27.5510113  34.7292753  66.7358903  26.6860113  34.0592753  65.9088903
  26.8990113  34.3092753  66.6208903  16.3750113  20.5762753  72.3218903
  15.5970113  20.1862753  72.2498903  16.8660113  20.1642753  71.7308903
  16.3320113  20.4572753  72.2238903  16.5800113  30.8962753  62.8798903
  17.0030113  30.5402753  62.2058903  16.9040113  30.4742753  63.5718903
  16.6900113  30.7812753  62.8828903  19.8110113  33.7482753  62.1758903
  20.6550113  33.8522753  61.9808903  19.5140113  34.5662753  62.2438903
  19.8920113  33.8842753  62.1568903  23.0240113  18.2192753  71.4898903
  23.2020113  17.4102753  71.2148903  22.8810113  18.6602753  70.7508903
  23.0290113  18.1652753  71.3398903  23.6180113  23.1452753  60.2628903
  23.9050113  22.9132753  59.4728903  24.3500113  23.2242753  60.7318903
  23.7680113  23.1222753  60.2158903  24.3400113  23.4842753  55.3838903
  24.6210113  24.2722753  55.6328903  23.5640113  23.6492753  55.0208903
  24.2670113  23.6252753  55.3668903  18.8090113  34.9672753  67.9158903
  19.1010113  34.9002753  68.7358903  18.1830113  34.3622753  67.8708903
  18.7600113  34.8682753  68.0308903  31.1700113  19.8262753  66.0108903
  31.9270113  19.8982753  65.5828903  31.2330113  19.0532753  66.4098903
  31.2910113  19.7232753  66.0058903  13.7230113  21.1242753  69.9078903
  13.7190113  21.7112753  70.5538903  14.3170113  21.4362753  69.3508903
  13.8100113  21.2572753  69.9208903  26.0610113  31.4582753  70.4498903
  26.0270113  31.8402753  71.2338903  26.9150113  31.4162753  70.2788903
  26.1820113  31.5082753  70.5408903  23.1990113  31.6552753  55.1998903
  23.0180113  32.2002753  55.8568903  23.9650113  31.9452753  54.8988903
  23.2850113  31.7792753  55.2528903  26.7060113  19.5512753  56.2538903
  27.2460113  18.8692753  56.3298903  26.7680113  19.9492753  57.0278903
  26.7950113  19.5092753  56.3798903  14.6600113  20.7192753  58.8228903
  14.5460113  19.8552753  58.8538903  14.1850113  21.0132753  59.4928903
  14.5730113  20.6352753  58.9258903  16.8020113  33.1292753  67.0378903
  16.1040113  32.6212753  67.1638903  17.0620113  32.9242753  66.2298903
  16.7370113  33.0242753  66.9368903  23.9640113  21.9272753  57.5678903
  23.4560113  21.2652753  57.3138903  24.0160113  22.4312753  56.8578903
  23.8970113  21.9042753  57.4258903  24.5130113  34.6222753  67.9478903
  25.2810113  34.5422753  67.5418903  23.9300113  34.5012753  67.3098903
  24.5400113  34.5922753  67.7938903  23.9640113  18.8682753  57.4588903
  23.5090113  18.4662753  56.8328903  24.7370113  19.0232753  57.0838903
  24.0110113  18.8322753  57.3108903  22.5620113  21.2352753  61.9808903
  22.6360113  21.8032753  61.3228903  22.6830113  21.7272753  62.6908903
  22.5900113  21.3922753  61.9888903  18.1630113  31.9802753  69.6048903
  19.0040113  32.0432753  69.3828903  18.1260113  32.3772753  70.3808903
  18.2820113  32.0482753  69.6868903  17.1700113  17.0582753  60.3288903
  17.7060113  17.7462753  60.3188903  17.1730113  16.7842753  59.5008903
  17.2490113  17.1192753  60.2048903  20.1260113  27.4912753  64.3538903
  20.2980113  27.2812753  65.1828903  19.4710113  26.9572753  64.1378903
  20.0550113  27.3812753  64.4448903  26.3540113  21.4052753  67.8688903
  26.2590113  21.7242753  68.6748903  25.7610113  20.7662753  67.8308903
  26.2520113  21.3572753  67.9828903  20.8760113  27.4292753  66.9438903
  20.9290113  28.2762753  67.1458903  20.5910113  27.0592753  67.6808903
  20.8420113  27.4992753  67.0818903  27.0530113  28.1242753  66.0738903
  26.5390113  27.7122753  66.6448903  26.9270113  28.9682753  66.2548903
  26.9590113  28.1882753  66.1848903  27.6100113  17.3492753  60.7048903
  27.6590113  17.0312753  61.5158903  27.9330113  16.7052753  60.2118903
  27.6650113  17.2072753  60.7518903  13.6970113  31.8002753  73.1548903
  14.4530113  32.1492753  73.4128903  13.8740113  30.9472753  73.0978903
  13.8350113  31.7252753  73.1848903  30.0740113  21.5852753  69.0128903
  30.8460113  21.3602753  69.3498903  29.5990113  21.8022753  69.7128903
  30.1180113  21.5842753  69.1658903  17.6180113  20.8682753  61.9828903
  17.8900113  20.4382753  61.2748903  17.4420113  20.2322753  62.5538903
  17.6320113  20.7112753  61.9628903  17.4420113  28.2952753  61.5318903
  18.2930113  28.2152753  61.3588903  17.0850113  27.6132753  61.1198903
  17.5150113  28.1822753  61.4448903  16.2090113  35.0202753  62.7688903
  15.5360113  34.5222753  62.5238903  16.6120113  35.2052753  62.0178903
  16.1690113  34.9742753  62.6218903  15.7590113  21.9702753  65.0648903
  16.6020113  22.1902753  65.0218903  15.3700113  22.5432753  64.5338903
  15.8260113  22.0872753  64.9798903  32.5400113  33.0722753  70.4548903
  31.8580113  33.3822753  70.0078903  32.1710113  32.6142753  71.0998903
  32.3840113  33.0502753  70.4838903  28.2010113  25.1002753  55.7858903
  27.9810113  25.8312753  55.3638903  27.7530113  25.1512753  56.5328903
  28.1020113  25.2152753  55.8338903  19.8100113  28.3022753  59.7668903
  20.5230113  28.7972753  59.8568903  20.0320113  27.7352753  59.1408903
  19.9480113  28.2912753  59.6878903  32.3880113  19.9612753  55.2388903
  31.7260113  19.3932753  55.2618903  32.1950113  20.4732753  54.5588903
  32.2620113  19.9532753  55.1418903  13.9660113  29.9452753  63.0868903
  13.2990113  30.4332753  63.3628903  14.6460113  30.4902753  63.1158903
  13.9680113  30.0972753  63.1318903  21.6130113  23.6552753  73.1828903
  21.1290113  24.2322753  73.6248903  21.5850113  23.9502753  72.3618903
  21.5370113  23.7842753  73.1268903  14.0320113  26.6292753  58.1898903
  13.8470113  25.7902753  58.3418903  14.6910113  26.5932753  57.6198903
  14.1020113  26.5002753  58.1278903  30.3900113  19.5192753  57.5178903
  31.1360113  19.1122753  57.7168903  30.6530113  20.2342753  57.0928903
  30.5390113  19.5652753  57.4848903  24.3330113  32.0052753  62.0938903
  23.8100113  32.6392753  61.8008903  24.6430113  31.6412753  61.3648903
  24.3010113  32.0452753  61.9428903  14.2040113  30.7932753  57.7648903
  14.7560113  31.3622753  58.1288903  13.9720113  30.2782753  58.4298903
  14.2510113  30.8012753  57.9168903  18.4080113  29.7932753  64.8538903
  18.8750113  30.0822753  65.5318903  18.9800113  29.3152753  64.3998903
  18.5620113  29.7652753  64.8868903  26.8440113  21.8072753  62.5908903
  27.1880113  21.9592753  63.3778903  26.3910113  21.0692753  62.7038903
  26.8280113  21.7202753  62.7238903  14.0340113  29.2422753  55.3928903
  14.7900113  28.8102753  55.4508903  14.0490113  29.7742753  56.0838903
  14.1480113  29.2572753  55.5038903  14.9740113  27.4632753  63.3978903
  15.4050113  27.3342753  62.6508903  14.7690113  28.3112753  63.3718903
  15.0070113  27.5692753  63.2838903  21.3200113  21.0272753  57.0478903
  21.3180113  20.9102753  56.1828903  21.1390113  21.8752753  57.1398903
  21.2930113  21.1352753  56.9338903  30.3740113  33.4542753  68.5448903
  29.7030113  33.9682753  68.7628903  30.4370113  33.5542753  67.6808903
  30.2840113  33.5452753  68.4498903  19.0580113  30.9792753  61.6798903
  19.1840113  31.8222753  61.8668903  19.7260113  30.5802753  62.0758903
  19.1760113  31.0452753  61.7658903  17.1880113  24.4622753  71.5418903
  16.6520113  23.9562753  72.0098903  17.2080113  24.0722753  70.7618903
  17.1110113  24.3292753  71.4958903  17.6730113  23.8592753  56.6818903
  17.5450113  23.4112753  57.4198903  17.0910113  23.5172753  56.1298903
  17.5680113  23.7422753  56.7098903  17.8400113  25.6892753  63.2808903
  17.0590113  25.6302753  62.8978903  17.9120113  24.9372753  63.7178903
  17.7350113  25.5702753  63.2888903  18.2700113  25.4262753  66.7488903
  18.2950113  24.7512753  66.1978903  17.6240113  25.9222753  66.4368903
  18.1790113  25.3992753  66.6218903  28.1650113  23.1392753  65.1448903
  27.5030113  23.4672753  65.6078903  28.3520113  23.7732753  64.5758903
  28.0950113  23.2812753  65.1288903  22.3700113  34.2032753  66.1408903
  22.0930113  33.5622753  65.6178903  22.1620113  34.9292753  65.7028903
  22.2990113  34.2162753  65.9988903  24.8100113  19.0452753  68.5738903
  24.9590113  18.2202753  68.3308903  25.1890113  19.1002753  69.3578903
  24.8880113  18.9312753  68.6538903  26.3580113  21.1082753  58.6558903
  26.8480113  21.8252753  58.5788903  25.5680113  21.3692753  58.3928903
  26.3140113  21.2522753  58.6058903  16.0690113  26.7812753  72.3078903
  16.0320113  27.2822753  71.5938903  16.4000113  26.0292753  72.0128903
  16.1120113  26.7432753  72.1588903  27.6720113  28.9862753  70.5658903
  28.1560113  29.7042753  70.6638903  28.0660113  28.5592753  69.9148903
  27.8020113  29.0292753  70.4838903  21.9680113  31.8312753  71.7428903
  22.3220113  31.6532753  72.5198903  21.5320113  31.1022753  71.5438903
  21.9560113  31.6972753  71.8288903  22.9400113  22.5782753  64.3808903
  23.4200113  23.2772753  64.5888903  23.3130113  21.9312753  64.8318903
  23.0660113  22.5862753  64.4778903  25.1290113  25.7472753  56.6548903
  25.1210113  26.4692753  56.1648903  24.4900113  25.8822753  57.2318903
  25.0340113  25.8742753  56.6678903  26.1460113  32.6832753  64.4798903
  25.5430113  32.3872753  63.9228903  26.6910113  33.1352753  63.9708903
  26.1370113  32.7062753  64.3218903  26.1590113  29.5342753  63.8798903
  25.3620113  29.7582753  64.1538903  26.4170113  28.9402753  64.4648903
  26.0790113  29.4792753  64.0068903  19.7220113  18.0892753  56.3158903
  19.8190113  17.9822753  57.1768903  19.0140113  18.5952753  56.2508903
  19.6320113  18.1482753  56.4338903  22.3430113  33.8622753  56.7298903
  22.9650113  34.0252753  57.3198903  22.3790113  34.5532753  56.1978903
  22.4400113  33.9882753  56.7388903  29.4190113  27.5322753  68.7258903
  29.4740113  27.6572753  67.8638903  30.1720113  27.8522753  69.0278903
  29.5380113  27.5972753  68.6428903  25.6100113  32.8812753  73.0028903
  25.7740113  33.1642753  73.8118903  25.8730113  33.5422753  72.4978903
  25.6730113  33.0212753  73.0478903  30.4510113  17.8302753  71.7128903
  29.8140113  17.4302753  71.2708903  30.4770113  17.3992753  72.4708903
  30.3610113  17.7082753  71.7588903  16.8440113  26.3962753  57.5588903
  17.1680113  25.6172753  57.3368903  17.4900113  26.7642753  58.0138903
  16.9870113  26.3352753  57.5928903  25.1500113  27.3382753  68.3258903
  24.9950113  27.9482753  68.9298903  25.6840113  26.7802753  68.7318903
  25.2060113  27.3462753  68.4748903  13.8410113  18.0572753  58.5268903
  13.9700113  17.3492753  58.0348903  13.4740113  17.7392753  59.2518903
  13.8060113  17.9052753  58.5618903  23.5340113  25.7382753  58.9838903
  23.5930113  26.3882753  59.5628903  23.3450113  25.0422753  59.4748903
  23.5150113  25.7312753  59.1418903  28.7600113  30.0672753  64.8528903
  28.2810113  30.3652753  64.1868903  28.4040113  29.2912753  65.0308903
  28.6370113  29.9962753  64.7808903  18.0300113  20.2552753  55.4958903
  17.5190113  20.3082753  54.7898903  18.8140113  20.4952753  55.1998903
  18.0700113  20.2982753  55.3478903  22.7570113  27.7852753  63.4148903
  21.9100113  27.5912753  63.4958903  23.0810113  27.6202753  64.2078903
  22.6790113  27.7322753  63.5438903  19.5090113  34.5152753  54.3008903
  19.9480113  33.8182753  54.5888903  19.7160113  35.1392753  54.8738903
  19.6050113  34.5042753  54.4278903  16.6050113  27.4782753  65.7308903
  17.3270113  27.9662753  65.6938903  16.3350113  27.4482753  64.9018903
  16.6720113  27.5462753  65.6028903  19.8350113  22.6492753  62.4658903
  20.6810113  22.4592753  62.5638903  19.4650113  21.8722753  62.3278903
  19.9050113  22.5062753  62.4598903  14.6560113  23.9872753  59.1208903
  15.1450113  23.6952753  59.7818903  14.7850113  23.3942753  58.4938903
  14.7470113  23.8562753  59.1258903  19.1810113  25.4212753  54.6068903
  18.5710113  25.0162753  55.0808903  18.7950113  25.5392753  53.8338903
  19.0340113  25.3782753  54.5628903  16.0000113  28.5302753  70.0088903
  15.5790113  28.0122753  69.4478903  15.6480113  29.3162753  69.8658903
  15.8860113  28.5702753  69.9048903  20.6360113  23.8822753  57.3168903
  20.9080113  24.7082753  57.3838903  19.7730113  23.9572753  57.2208903
  20.5490113  24.0152753  57.3118903  14.1160113  19.8522753  63.8528903
  14.1600113  20.1962753  63.0518903  14.8710113  20.0892753  64.2198903
  14.2340113  19.9382753  63.7888903  27.1010113  24.5732753  72.0248903
  27.1740113  24.6772753  72.8878903  26.4670113  25.1312753  71.8038903
  27.0180113  24.6712753  72.1198903  29.3690113  24.8922753  70.3898903
  29.6880113  25.6782753  70.5928903  28.9990113  24.6222753  71.1328903
  29.3620113  24.9682753  70.5298903  29.1650113  23.1502753  61.5788903
  28.4200113  22.8272753  61.8968903  29.1670113  23.9762753  61.8588903
  29.0550113  23.2242753  61.6668903  32.0670113  25.4342753  73.1248903
  32.0150113  25.0932753  72.3238903  32.8040113  25.9012753  73.1028903
  32.1680113  25.4532753  73.0028903  31.6050113  29.1102753  69.3308903
  32.2330113  28.5612753  69.0748903  31.5440113  29.6752753  68.6688903
  31.6890113  29.1132753  69.1948903  26.0570113  29.1912753  55.3228903
  26.7410113  28.6772753  55.1538903  25.6400113  29.2372753  54.5578903
  26.0960113  29.1222753  55.1848903  20.7390113  30.3412753  66.6268903
  20.4410113  30.9332753  67.1938903  20.7940113  30.7832753  65.8778903
  20.7030113  30.4942753  66.5998903  18.7180113  29.2912753  70.0248903
  17.9120113  29.0012753  70.1918903  18.6290113  30.1592753  70.0308903
  18.5860113  29.3762753  70.0498903  28.0770113  19.4802753  69.0398903
  28.8210113  19.9322753  68.9768903  27.5110113  19.9502753  68.5708903
  28.1040113  19.6172753  68.9618903  23.2550113  26.7642753  66.1178903
  23.7310113  27.1382753  66.7458903  22.4320113  26.8982753  66.3768903
  23.2040113  26.8392753  66.2488903  19.9650113  22.3672753  68.8588903
  20.1260113  21.6232753  69.2858903  19.9200113  22.1182753  68.0238903
  19.9820113  22.2202753  68.7988903  22.5190113  34.1572753  61.3458903
  23.0650113  34.8362753  61.3998903  22.1690113  34.2392753  60.5508903
  22.5480113  34.2702753  61.2358903  29.3620113  17.4602753  66.7098903
  29.0820113  18.2852753  66.6658903  30.0780113  17.5132753  67.2058903
  29.4270113  17.5902753  66.7768903  21.7170113  18.1752753  68.7388903
  22.4220113  18.4952753  68.3368903  21.9580113  17.3682753  68.9658903
  21.8560113  18.1032753  68.7128903  20.7020113  32.3852753  64.7348903
  20.0780113  32.9672753  64.5528903  20.9500113  32.0992753  63.9488903
  20.6460113  32.4292753  64.5918903  25.0110113  29.0192753  71.7238903
  25.7680113  29.3052753  71.3978903  24.4640113  29.0712753  71.0458903
  25.0420113  29.0692753  71.5748903  28.9200113  31.5692753  70.2278903
  29.2660113  31.8392753  70.9818903  29.2140113  32.1512753  69.6478903
  29.0150113  31.6952753  70.2538903  30.7830113  23.7152753  55.5668903
  31.1610113  24.3922753  55.1668903  29.9410113  23.9392753  55.5978903
  30.7140113  23.8482753  55.5118903  22.2960113  27.1612753  54.6498903
  21.4910113  26.9842753  54.3648903  22.2630113  28.0122753  54.8418903
  22.1720113  27.2602753  54.6368903  18.2260113  23.2282753  64.7998903
  18.6660113  23.1252753  64.0538903  18.7710113  22.9152753  65.4048903
  18.3710113  23.1672753  64.7788903  26.2420113  22.3302753  70.3918903
  25.5940113  22.8002753  70.7398903  26.8070113  22.2412753  71.0508903
  26.2300113  22.3862753  70.5408903  25.9300113  23.8672753  66.6898903
  26.2320113  24.2872753  67.3928903  25.9660113  23.0272753  66.9218903
  25.9800113  23.8052753  66.8278903  23.3550113  34.0342753  70.6148903
  23.8330113  33.4342753  70.1988903  23.0040113  33.5912753  71.2798903
  23.3740113  33.8802753  70.6518903  28.4780113  23.3142753  58.9418903
  28.6850113  23.1132753  59.7658903  29.2340113  23.5822753  58.5998903
  28.6200113  23.3242753  59.0128903  21.7730113  18.2132753  64.8468903
  20.9470113  18.0642753  65.0838903  21.7330113  18.2482753  63.9758903
  21.6450113  18.1962753  64.7528903  29.5000113  19.3972753  60.4158903
  28.7860113  18.9262753  60.5868903  29.3380113  19.7382753  59.6298903
  29.3710113  19.3782753  60.3248903  29.9430113  27.3412753  58.7958903
  30.4190113  26.6122753  58.7478903  29.1220113  27.0552753  58.7198903
  29.8920113  27.1912753  58.7768903  23.4140113  29.2532753  69.6348903
  22.6190113  29.1892753  69.9858903  23.4850113  30.1002753  69.4398903
  23.3070113  29.3682753  69.6578903  14.3380113  18.6112753  70.8818903
  14.1980113  19.4062753  70.5508903  13.5520113  18.3682753  71.1708903
  14.2010113  18.6932753  70.8758903  19.2440113  35.4602753  64.9518903
  19.2550113  35.5192753  65.8218903  18.8190113  34.7132753  64.8018903
  19.1830113  35.3582753  65.0578903  17.4020113  21.3552753  58.1068903
  17.5280113  21.0262753  57.3088903  16.5900113  21.1062753  58.3058903
  17.3010113  21.2702753  58.0188903  26.1590113  28.5082753  61.1508903
  26.2350113  28.8492753  61.9498903  26.3280113  27.6612753  61.2718903
  26.1950113  28.4332753  61.2868903  23.6810113  27.7822753  60.7158903
  23.3830113  27.4672753  61.4728903  24.3760113  28.2552753  60.9508903
  23.7400113  27.8052753  60.8628903  23.9030113  31.9002753  68.7428903
  24.5900113  31.7862753  69.2678903  24.0370113  32.6912753  68.3988903
  24.0240113  32.0002753  68.7698903  32.0790113  24.5092753  70.5538903
  31.2240113  24.3872753  70.6798903  32.2320113  24.1142753  69.7908903
  31.9750113  24.4322753  70.4598903  26.5920113  25.1742753  69.1298903
  26.3370113  24.4552753  69.5518903  27.4130113  25.2902753  69.3998903
  26.6760113  25.0852753  69.2318903  16.0080113  34.9582753  70.3938903
  15.3540113  34.3892753  70.4918903  15.6330113  35.7312753  70.5448903
  15.8560113  34.9882753  70.4308903  24.5260113  26.3642753  72.3168903
  24.8490113  27.0502753  71.8848903  23.8220113  26.6872753  72.7188903
  24.4690113  26.5132753  72.3118903  27.6100113  34.7382753  63.2458903
  27.1590113  35.3812753  63.6248903  28.3180113  34.6592753  63.7508903
  27.6480113  34.8212753  63.3768903  24.3110113  29.8282753  66.1758903
  23.6170113  30.2302753  66.5188903  24.9880113  30.2612753  66.5148903
  24.3080113  29.9512753  66.2768903  29.6880113  32.4212753  72.7558903
  30.4640113  32.0312753  72.8388903  29.2190113  32.0852753  73.4108903
  29.7330113  32.3142753  72.8648903  17.3790113  23.3662753  68.5228903
  17.7540113  23.9852753  68.0358903  18.0530113  22.8922753  68.8078903
  17.5340113  23.3882753  68.4928903  15.1540113  21.8142753  67.7978903
  15.2310113  21.6452753  66.9448903  15.9000113  22.2202753  67.9948903
  15.2750113  21.8492753  67.7008903  30.7130113  24.4542753  58.2378903
  30.8160113  24.3962753  57.3738903  31.4540113  24.1222753  58.5558903
  30.8380113  24.3972753  58.1568903  17.7080113  19.2242753  70.2088903
  17.6270113  18.3802753  70.4148903  17.3940113  19.2682753  69.3958903
  17.6500113  19.1062753  70.1188903  24.6330113  31.4192753  59.3448903
  24.4280113  32.2522753  59.1858903  23.8580113  31.0372753  59.4668903
  24.4880113  31.4862753  59.3398903  14.5510113  27.0402753  68.0218903
  14.8710113  27.2592753  67.2408903  14.4510113  26.1752753  67.9668903
  14.5830113  26.9452753  67.8988903  16.0070113  22.9762753  54.6398903
  15.3350113  22.9902753  55.1958903  16.1020113  22.1282753  54.4558903
  15.9220113  22.8532753  54.6948903  25.6940113  19.4002753  71.3758903
  25.7860113  20.1122753  71.8698903  25.0570113  18.9552753  71.7728903
  25.6130113  19.4392753  71.5078903  24.6880113  19.5902753  62.2298903
  23.9880113  20.1082753  62.1738903  24.7260113  19.2102753  61.4458903
  24.5900113  19.6112753  62.1058903  19.9950113  31.6812753  55.7538903
  20.4360113  31.7612753  56.5018903  19.1900113  31.4652753  56.0118903
  19.9410113  31.6612753  55.9028903  28.2860113  20.1062753  65.0298903
  29.1410113  20.2052753  65.1748903  27.9170113  20.6592753  65.5948903
  28.3580113  20.2032753  65.1348903  19.3140113  26.3322753  69.4068903
  18.9180113  27.1062753  69.4818903  18.9080113  25.9592753  68.7308903
  19.1960113  26.3912753  69.3178903  17.3240113  30.7512753  56.3548903
  17.0800113  30.4442753  57.1348903  17.2910113  30.0482753  55.8388903
  17.2830113  30.6022753  56.3938903  20.1430113  28.9962753  55.0978903
  19.3250113  28.7282753  55.2378903  20.1150113  29.8482753  55.2828903
  20.0180113  29.0832753  55.1458903  19.7430113  19.3092753  66.8568903
  18.8790113  19.3932753  66.9368903  19.9630113  18.7952753  67.5258903
  19.6480113  19.2462753  66.9678903  31.7610113  17.9442753  68.1858903
  31.7090113  17.9002753  69.0558903  32.4480113  17.4412753  67.9958903
  31.8550113  17.8642753  68.2858903  26.5780113  30.9052753  67.0188903
  26.7840113  31.2062753  67.8108903  26.5170113  31.6272753  66.5338903
  26.5990113  31.0562753  67.0638903  26.1120113  35.1192753  71.2648903
  25.3590113  35.1012753  70.8238903  26.2800113  35.9712753  71.3488903
  26.0260113  35.2422753  71.2118903  21.3490113  24.3862753  70.4348903
  21.0270113  23.8102753  69.8648903  20.9900113  25.1412753  70.1888903
  21.2490113  24.4122753  70.3148903  22.1450113  17.6382753  55.0618903
  22.2230113  17.8852753  54.2288903  21.4020113  18.0152753  55.3198903
  22.0470113  17.7302753  54.9768903  19.7840113  34.7422753  70.6828903
  19.8250113  34.8682753  71.5458903  20.4350113  34.1822753  70.5268903
  19.8860113  34.6782753  70.7878903  29.4950113  32.8042753  65.2738903
  30.0220113  32.7212753  64.5828903  29.1040113  32.0262753  65.3278903
  29.5150113  32.6772753  65.1798903  16.9630113  19.3922753  67.5048903
  16.6200113  18.6252753  67.2708903  16.2680113  19.9162753  67.5688903
  16.8100113  19.3562753  67.4798903  26.0090113  18.2482753  64.4818903
  26.6790113  18.7922753  64.6088903  25.5060113  18.6722753  63.9088903
  26.0340113  18.3912753  64.4158903  17.3770113  33.1252753  72.0428903
  17.9720113  33.5562753  72.5148903  17.0130113  33.7492753  71.5538903
  17.4110113  33.2812753  72.0398903  25.3680113  24.0562753  61.9748903
  25.9190113  23.4492753  62.2748903  24.9430113  24.3192753  62.6898903
  25.3870113  24.0052753  62.1238903  15.6160113  22.7062753  61.4608903
  15.2480113  23.0082753  62.1918903  16.1500113  22.0772753  61.7448903
  15.6400113  22.6582753  61.6108903  15.3040113  31.1142753  68.9718903
  14.7300113  31.5302753  69.4808903  16.0370113  31.5792753  69.0668903
  15.3280113  31.2442753  69.0608903  27.3380113  25.8872753  58.5368903
  27.4060113  25.0372753  58.7178903  26.5150113  25.9732753  58.2588903
  27.2260113  25.7742753  58.5228903  17.0900113  34.3812753  57.7468903
  16.9450113  34.5372753  56.9008903  17.9560113  34.4602753  57.8248903
  17.1970113  34.4162753  57.6338903  21.2570113  26.7782753  57.4748903
  21.3570113  26.9172753  56.6198903  22.0750113  26.7182753  57.7708903
  21.3920113  26.7892753  57.3918903  30.6120113  27.2602753  71.6878903
  31.2460113  27.0902753  72.2618903  31.0290113  27.6632753  71.0358903
  30.7670113  27.2952753  71.6768903  26.4920113  31.1072753  57.2768903
  26.2410113  30.9792753  58.1028903  26.1750113  30.4122753  56.8558903
  26.4080113  30.9862753  57.3368903  31.2370113  21.8242753  72.4258903
  31.0410113  22.4682753  72.9808903  30.5150113  21.3342753  72.4178903
  31.1020113  21.8472753  72.5068903  20.3960113  19.7532753  70.5908903
  20.6300113  19.1772753  69.9778903  19.5540113  19.5722753  70.7318903
  20.3060113  19.6412753  70.5208903  28.0230113  27.3712753  73.0428903
  28.8940113  27.3352753  73.0068903  27.8040113  27.7912753  72.3108903
  28.1200113  27.4272753  72.9298903  17.7770113  33.1962753  64.2238903
  17.6980113  32.3862753  63.9078903  17.3330113  33.6832753  63.6518903
  17.7000113  33.1482753  64.0928903  23.3780113  29.3152753  56.7068903
  24.0950113  28.9682753  56.3508903  23.3440113  30.1152753  56.3588903
  23.4790113  29.3822753  56.6028903  15.3490113  35.4402753  67.8048903
  15.8420113  35.3842753  68.5228903  15.5370113  34.7072753  67.3698903
  15.4500113  35.3232753  67.8468903  24.7870113  17.9562753  40.9456493
  24.5420113  18.4442753  40.2656493  25.6500113  17.8832753  40.8456493
  24.8780113  18.0172753  40.8306493  24.5960113  24.8722753  45.6166493
  24.0720113  25.4682753  45.9796493  24.9930113  24.5042753  46.3006493
  24.5770113  24.9062753  45.7716493  14.4650113  29.0122753  41.0726493
  14.0240113  29.1302753  41.8156493  14.1820113  28.2372753  40.7876493
  14.3580113  28.9152753  41.1406493  14.2080113  22.8042753  37.5796493
  13.4300113  22.9662753  37.2196493  14.2470113  21.9332753  37.6016493
  14.0990113  22.6992753  37.5296493  17.3470113  28.0672753  36.2516493
  16.9550113  27.6962753  35.5656493  17.2670113  27.4692753  36.8806493
  17.2770113  27.9242753  36.2426493  27.2670113  25.9392753  42.2926493
  27.3470113  25.9432753  41.4236493  26.6830113  25.3072753  42.4416493
  27.1920113  25.8462753  42.1866493  16.9740113  29.7082753  40.1516493
  17.5820113  29.5382753  40.7546493  16.2230113  29.5682753  40.5726493
  16.9530113  29.6622753  40.3026493  21.2560113  19.0432753  40.1006493
  21.1860113  19.7202753  39.5546493  21.9970113  18.6552753  39.8516493
  21.3550113  19.0862753  39.9826493  15.8650113  32.7992753  36.2286493
  16.3320113  32.8832753  35.4966493  16.3200113  32.2212753  36.6976493
  16.0010113  32.7262753  36.1896493  14.4050113  31.7472753  47.3276493
  14.5340113  31.4672753  48.1436493  13.7950113  31.2062753  47.0186493
  14.3340113  31.6262753  47.4026493  20.9790113  29.2722753  52.3946493
  20.7430113  29.2692753  53.2346493  20.2310113  29.1242753  51.9706493
  20.8330113  29.2492753  52.4556493  15.8510113  26.2682753  41.5296493
  15.3890113  25.8762753  40.9026493  16.5510113  25.7552753  41.6216493
  15.8860113  26.1352753  41.4506493  20.3590113  21.8782753  46.8766493
  21.0370113  21.8962753  46.3276493  20.3140113  21.0422753  47.1216493
  20.4520113  21.7572753  46.8316493  20.9610113  32.4642753  49.6576493
  21.0990113  33.2242753  49.2506493  21.7520113  32.0992753  49.6846493
  21.0980113  32.5232753  49.6016493  17.8520113  24.3682753  41.5526493
  18.6690113  24.1812753  41.7956493  17.3750113  23.7542753  41.9486493
  17.9020113  24.2502753  41.6476493  22.0560113  30.3492753  44.1626493
  22.4040113  29.5502753  44.1926493  22.7210113  30.8532753  43.9076493
  22.2060113  30.3052753  44.1296493  22.1130113  29.7982753  40.3736493
  22.4440113  29.1542753  40.8596493  22.3530113  29.5872753  39.5626493
  22.1970113  29.6722753  40.3256493  24.0810113  23.9292753  51.7126493
  23.2330113  23.8302753  51.5346493  24.1100113  24.6742753  52.1666493
  23.9600113  24.0252753  51.7536493  18.4490113  19.4622753  40.8186493
  18.1530113  19.9632753  40.1686493  19.3160113  19.5402753  40.7616493
  18.5330113  19.5482753  40.7146493  28.6390113  16.8892753  50.8266493
  28.4810113  17.6582753  50.4446493  27.8670113  16.6692753  51.1706493
  28.5010113  16.9702753  50.8216493  21.4280113  18.6042753  43.0416493
  21.5010113  19.4642753  43.1706493  21.3900113  18.5292753  42.1736493
  21.4330113  18.7202753  42.9326493  26.1010113  21.5302753  35.3406493
  25.6510113  22.2112753  35.6476493  26.2150113  21.0262753  36.0436493
  26.0520113  21.5562753  35.4896493  14.3070113  24.0292753  44.5426493
  14.0510113  24.8602753  44.4676493  13.6430113  23.6462753  44.9596493
  14.1710113  24.0952753  44.5936493  14.2170113  33.7392753  42.4426493
  13.6250113  34.2972753  42.1296493  14.6430113  33.4702753  41.7306493
  14.1930113  33.7812753  42.2916493  20.0570113  31.5832753  39.9226493
  19.4780113  31.3082753  40.5146493  20.6810113  30.9742753  39.9476493
  20.0640113  31.4532753  40.0136493  17.3360113  18.8462753  45.0336493
  16.8150113  18.2182753  44.7256493  17.9270113  18.4092753  45.5046493
  17.3470113  18.6882753  45.0576493  20.6420113  20.9792753  54.3316493
  20.7590113  20.5252753  53.5956493  20.9300113  21.7772753  54.1286493
  20.7020113  21.0302753  54.1926493  15.7620113  32.4092753  40.3736493
  16.4180113  31.8342753  40.3886493  16.1510113  33.1582753  40.1526493
  15.9170113  32.4342753  40.3436493  31.4950113  21.5032753  41.6356493
  31.1490113  22.1812753  42.0616493  30.8590113  20.9052753  41.6516493
  31.3500113  21.5152753  41.7006493  16.3750113  20.5762753  53.3156493
  15.5970113  20.1862753  53.2436493  16.8660113  20.1642753  52.7246493
  16.3320113  20.4572753  53.2176493  16.5800113  30.8962753  43.8736493
  17.0030113  30.5402753  43.1996493  16.9040113  30.4742753  44.5656493
  16.6900113  30.7812753  43.8766493  19.8110113  33.7482753  43.1696493
  20.6550113  33.8522753  42.9746493  19.5140113  34.5662753  43.2376493
  19.8920113  33.8842753  43.1506493  23.0240113  18.2192753  52.4836493
  23.2020113  17.4102753  52.2086493  22.8810113  18.6602753  51.7446493
  23.0290113  18.1652753  52.3336493  23.6180113  23.1452753  41.2566493
  23.9050113  22.9132753  40.4666493  24.3500113  23.2242753  41.7256493
  23.7680113  23.1222753  41.2096493  24.3400113  23.4842753  36.3776493
  24.6210113  24.2722753  36.6266493  23.5640113  23.6492753  36.0146493
  24.2670113  23.6252753  36.3606493  18.8090113  34.9672753  48.9096493
  19.1010113  34.9002753  49.7296493  18.1830113  34.3622753  48.8646493
  18.7600113  34.8682753  49.0246493  31.1700113  19.8262753  47.0046493
  31.9270113  19.8982753  46.5766493  31.2330113  19.0532753  47.4036493
  31.2910113  19.7232753  46.9996493  13.7230113  21.1242753  50.9016493
  13.7190113  21.7112753  51.5476493  14.3170113  21.4362753  50.3446493
  13.8100113  21.2572753  50.9146493  26.0610113  31.4582753  51.4436493
  26.0270113  31.8402753  52.2276493  26.9150113  31.4162753  51.2726493
  26.1820113  31.5082753  51.5346493  23.1990113  31.6552753  36.1936493
  23.0180113  32.2002753  36.8506493  23.9650113  31.9452753  35.8926493
  23.2850113  31.7792753  36.2466493  26.7060113  19.5512753  37.2476493
  27.2460113  18.8692753  37.3236493  26.7680113  19.9492753  38.0216493
  26.7950113  19.5092753  37.3736493  14.6600113  20.7192753  39.8166493
  14.5460113  19.8552753  39.8476493  14.1850113  21.0132753  40.4866493
  14.5730113  20.6352753  39.9196493  16.8020113  33.1292753  48.0316493
  16.1040113  32.6212753  48.1576493  17.0620113  32.9242753  47.2236493
  16.7370113  33.0242753  47.9306493  23.9640113  21.9272753  38.5616493
  23.4560113  21.2652753  38.3076493  24.0160113  22.4312753  37.8516493
  23.8970113  21.9042753  38.4196493  22.5620113  21.2352753  42.9746493
  22.6360113  21.8032753  42.3166493  22.6830113  21.7272753  43.6846493
  22.5900113  21.3922753  42.9826493  27.7870113  31.0702753  41.3866493
  28.4880113  30.5882753  41.5756493  27.1270113  30.5012753  41.4316493
  27.7930113  30.9152753  41.4206493  18.1630113  31.9802753  50.5986493
  19.0040113  32.0432753  50.3766493  18.1260113  32.3772753  51.3746493
  18.2820113  32.0482753  50.6806493  17.1700113  17.0582753  41.3226493
  17.7060113  17.7462753  41.3126493  17.1730113  16.7842753  40.4946493
  17.2490113  17.1192753  41.1986493  20.1260113  27.4912753  45.3476493
  20.2980113  27.2812753  46.1766493  19.4710113  26.9572753  45.1316493
  20.0550113  27.3812753  45.4386493  26.3540113  21.4052753  48.8626493
  26.2590113  21.7242753  49.6686493  25.7610113  20.7662753  48.8246493
  26.2520113  21.3572753  48.9766493  20.8760113  27.4292753  47.9376493
  20.9290113  28.2762753  48.1396493  20.5910113  27.0592753  48.6746493
  20.8420113  27.4992753  48.0756493  27.0530113  28.1242753  47.0676493
  26.5390113  27.7122753  47.6386493  26.9270113  28.9682753  47.2486493
  26.9590113  28.1882753  47.1786493  27.6100113  17.3492753  41.6986493
  27.6590113  17.0312753  42.5096493  27.9330113  16.7052753  41.2056493
  27.6650113  17.2072753  41.7456493  13.6970113  31.8002753  54.1486493
  14.4530113  32.1492753  54.4066493  13.8740113  30.9472753  54.0916493
  13.8350113  31.7252753  54.1786493  30.0740113  21.5852753  50.0066493
  30.8460113  21.3602753  50.3436493  29.5990113  21.8022753  50.7066493
  30.1180113  21.5842753  50.1596493  17.6180113  20.8682753  42.9766493
  17.8900113  20.4382753  42.2686493  17.4420113  20.2322753  43.5476493
  17.6320113  20.7112753  42.9566493  17.4420113  28.2952753  42.5256493
  18.2930113  28.2152753  42.3526493  17.0850113  27.6132753  42.1136493
  17.5150113  28.1822753  42.4386493  16.2090113  35.0202753  43.7626493
  15.5360113  34.5222753  43.5176493  16.6120113  35.2052753  43.0116493
  16.1690113  34.9742753  43.6156493  15.7590113  21.9702753  46.0586493
  16.6020113  22.1902753  46.0156493  15.3700113  22.5432753  45.5276493
  15.8260113  22.0872753  45.9736493  19.8100113  28.3022753  40.7606493
  20.5230113  28.7972753  40.8506493  20.0320113  27.7352753  40.1346493
  19.9480113  28.2912753  40.6816493  13.9660113  29.9452753  44.0806493
  13.2990113  30.4332753  44.3566493  14.6460113  30.4902753  44.1096493
  13.9680113  30.0972753  44.1256493  21.6130113  23.6552753  54.1766493
  21.1290113  24.2322753  54.6186493  21.5850113  23.9502753  53.3556493
  21.5370113  23.7842753  54.1206493  32.7110113  24.3392753  48.7886493
  32.9260113  23.5392753  48.5126493  31.8610113  24.3992753  48.5996493
  32.6170113  24.2302753  48.7196493  14.0320113  26.6292753  39.1836493
  13.8470113  25.7902753  39.3356493  14.6910113  26.5932753  38.6136493
  14.1020113  26.5002753  39.1216493  30.3900113  19.5192753  38.5116493
  31.1360113  19.1122753  38.7106493  30.6530113  20.2342753  38.0866493
  30.5390113  19.5652753  38.4786493  24.3330113  32.0052753  43.0876493
  23.8100113  32.6392753  42.7946493  24.6430113  31.6412753  42.3586493
  24.3010113  32.0452753  42.9366493  14.2040113  30.7932753  38.7586493
  14.7560113  31.3622753  39.1226493  13.9720113  30.2782753  39.4236493
  14.2510113  30.8012753  38.9106493  18.4080113  29.7932753  45.8476493
  18.8750113  30.0822753  46.5256493  18.9800113  29.3152753  45.3936493
  18.5620113  29.7652753  45.8806493  26.8440113  21.8072753  43.5846493
  27.1880113  21.9592753  44.3716493  26.3910113  21.0692753  43.6976493
  26.8280113  21.7202753  43.7176493  14.0340113  29.2422753  36.3866493
  14.7900113  28.8102753  36.4446493  14.0490113  29.7742753  37.0776493
  14.1480113  29.2572753  36.4976493  14.9740113  27.4632753  44.3916493
  15.4050113  27.3342753  43.6446493  14.7690113  28.3112753  44.3656493
  15.0070113  27.5692753  44.2776493  21.3200113  21.0272753  38.0416493
  21.3180113  20.9102753  37.1766493  21.1390113  21.8752753  38.1336493
  21.2930113  21.1352753  37.9276493  19.0580113  30.9792753  42.6736493
  19.1840113  31.8222753  42.8606493  19.7260113  30.5802753  43.0696493
  19.1760113  31.0452753  42.7596493  17.1880113  24.4622753  52.5356493
  16.6520113  23.9562753  53.0036493  17.2080113  24.0722753  51.7556493
  17.1110113  24.3292753  52.4896493  17.6730113  23.8592753  37.6756493
  17.5450113  23.4112753  38.4136493  17.0910113  23.5172753  37.1236493
  17.5680113  23.7422753  37.7036493  17.8400113  25.6892753  44.2746493
  17.0590113  25.6302753  43.8916493  17.9120113  24.9372753  44.7116493
  17.7350113  25.5702753  44.2826493  18.2700113  25.4262753  47.7426493
  18.2950113  24.7512753  47.1916493  17.6240113  25.9222753  47.4306493
  18.1790113  25.3992753  47.6156493  28.1650113  23.1392753  46.1386493
  27.5030113  23.4672753  46.6016493  28.3520113  23.7732753  45.5696493
  28.0950113  23.2812753  46.1226493  22.3700113  34.2032753  47.1346493
  22.0930113  33.5622753  46.6116493  22.1620113  34.9292753  46.6966493
  22.2990113  34.2162753  46.9926493  24.8100113  19.0452753  49.5676493
  24.9590113  18.2202753  49.3246493  25.1890113  19.1002753  50.3516493
  24.8880113  18.9312753  49.6476493  26.3580113  21.1082753  39.6496493
  26.8480113  21.8252753  39.5726493  25.5680113  21.3692753  39.3866493
  26.3140113  21.2522753  39.5996493  16.0690113  26.7812753  53.3016493
  16.0320113  27.2822753  52.5876493  16.4000113  26.0292753  53.0066493
  16.1120113  26.7432753  53.1526493  21.9680113  31.8312753  52.7366493
  22.3220113  31.6532753  53.5136493  21.5320113  31.1022753  52.5376493
  21.9560113  31.6972753  52.8226493  22.9400113  22.5782753  45.3746493
  23.4200113  23.2772753  45.5826493  23.3130113  21.9312753  45.8256493
  23.0660113  22.5862753  45.4716493  25.1290113  25.7472753  37.6486493
  25.1210113  26.4692753  37.1586493  24.4900113  25.8822753  38.2256493
  25.0340113  25.8742753  37.6616493  30.1010113  29.6172753  41.6296493
  30.4570113  29.2672753  42.3446493  30.0930113  28.9562753  41.0596493
  30.1530113  29.4672753  41.6506493  26.1590113  29.5342753  44.8736493
  25.3620113  29.7582753  45.1476493  26.4170113  28.9402753  45.4586493
  26.0790113  29.4792753  45.0006493  20.0510113  34.3462753  39.3216493
  19.9040113  33.5702753  39.6926493  20.7400113  34.1992753  38.8066493
  20.1310113  34.2092753  39.3006493  19.7220113  18.0892753  37.3096493
  19.8190113  17.9822753  38.1706493  19.0140113  18.5952753  37.2446493
  19.6320113  18.1482753  37.4276493  29.4190113  27.5322753  49.7196493
  29.4740113  27.6572753  48.8576493  30.1720113  27.8522753  50.0216493
  29.5380113  27.5972753  49.6366493  25.6100113  32.8812753  53.9966493
  25.7740113  33.1642753  54.8056493  25.8730113  33.5422753  53.4916493
  25.6730113  33.0212753  54.0416493  30.4510113  17.8302753  52.7066493
  29.8140113  17.4302753  52.2646493  30.4770113  17.3992753  53.4646493
  30.3610113  17.7082753  52.7526493  16.8440113  26.3962753  38.5526493
  17.1680113  25.6172753  38.3306493  17.4900113  26.7642753  39.0076493
  16.9870113  26.3352753  38.5866493  25.1500113  27.3382753  49.3196493
  24.9950113  27.9482753  49.9236493  25.6840113  26.7802753  49.7256493
  25.2060113  27.3462753  49.4686493  13.8410113  18.0572753  39.5206493
  13.9700113  17.3492753  39.0286493  13.4740113  17.7392753  40.2456493
  13.8060113  17.9052753  39.5556493  23.5340113  25.7382753  39.9776493
  23.5930113  26.3882753  40.5566493  23.3450113  25.0422753  40.4686493
  23.5150113  25.7312753  40.1356493  28.7600113  30.0672753  45.8466493
  28.2810113  30.3652753  45.1806493  28.4040113  29.2912753  46.0246493
  28.6370113  29.9962753  45.7746493  18.0300113  20.2552753  36.4896493
  17.5190113  20.3082753  35.7836493  18.8140113  20.4952753  36.1936493
  18.0700113  20.2982753  36.3416493  22.7570113  27.7852753  44.4086493
  21.9100113  27.5912753  44.4896493  23.0810113  27.6202753  45.2016493
  22.6790113  27.7322753  44.5376493  19.5090113  34.5152753  35.2946493
  19.9480113  33.8182753  35.5826493  19.7160113  35.1392753  35.8676493
  19.6050113  34.5042753  35.4216493  16.6050113  27.4782753  46.7246493
  17.3270113  27.9662753  46.6876493  16.3350113  27.4482753  45.8956493
  16.6720113  27.5462753  46.5966493  19.8350113  22.6492753  43.4596493
  20.6810113  22.4592753  43.5576493  19.4650113  21.8722753  43.3216493
  19.9050113  22.5062753  43.4536493  14.6560113  23.9872753  40.1146493
  15.1450113  23.6952753  40.7756493  14.7850113  23.3942753  39.4876493
  14.7470113  23.8562753  40.1196493  29.6910113  27.0092753  46.9656493
  29.6840113  26.2332753  47.3636493  28.8500113  27.2432753  46.9586493
  29.5660113  26.9292753  47.0236493  19.1810113  25.4212753  35.6006493
  18.5710113  25.0162753  36.0746493  18.7950113  25.5392753  34.8276493
  19.0340113  25.3782753  35.5566493  16.0000113  28.5302753  51.0026493
  15.5790113  28.0122753  50.4416493  15.6480113  29.3162753  50.8596493
  15.8860113  28.5702753  50.8986493  30.9470113  27.0802753  44.4026493
  30.6610113  27.4812753  45.1226493  31.8070113  27.0182753  44.5296493
  31.0320113  27.1302753  44.5276493  20.6360113  23.8822753  38.3106493
  20.9080113  24.7082753  38.3776493  19.7730113  23.9572753  38.2146493
  20.5490113  24.0152753  38.3056493  28.6090113  21.0042753  52.9426493
  28.0840113  21.4632753  53.4666493  28.2480113  20.2092753  52.9366493
  28.4780113  20.9542753  53.0186493  14.1160113  19.8522753  44.8466493
  14.1600113  20.1962753  44.0456493  14.8710113  20.0892753  45.2136493
  14.2340113  19.9382753  44.7826493  32.0780113  32.7132753  44.9316493
  32.3680113  32.9702753  44.1506493  32.7730113  32.8092753  45.4506493
  32.2240113  32.7652753  44.8926493  27.1010113  24.5732753  53.0186493
  27.1740113  24.6772753  53.8816493  26.4670113  25.1312753  52.7976493
  27.0180113  24.6712753  53.1136493  29.3690113  24.8922753  51.3836493
  29.6880113  25.6782753  51.5866493  28.9990113  24.6222753  52.1266493
  29.3620113  24.9682753  51.5236493  29.1650113  23.1502753  42.5726493
  28.4200113  22.8272753  42.8906493  29.1670113  23.9762753  42.8526493
  29.0550113  23.2242753  42.6606493  32.0670113  25.4342753  54.1186493
  32.0150113  25.0932753  53.3176493  32.8040113  25.9012753  54.0966493
  32.1680113  25.4532753  53.9966493  20.7390113  30.3412753  47.6206493
  20.4410113  30.9332753  48.1876493  20.7940113  30.7832753  46.8716493
  20.7030113  30.4942753  47.5936493  18.7180113  29.2912753  51.0186493
  17.9120113  29.0012753  51.1856493  18.6290113  30.1592753  51.0246493
  18.5860113  29.3762753  51.0436493  28.0770113  19.4802753  50.0336493
  28.8210113  19.9322753  49.9706493  27.5110113  19.9502753  49.5646493
  28.1040113  19.6172753  49.9556493  23.2550113  26.7642753  47.1116493
  23.7310113  27.1382753  47.7396493  22.4320113  26.8982753  47.3706493
  23.2040113  26.8392753  47.2426493  19.9650113  22.3672753  49.8526493
  20.1260113  21.6232753  50.2796493  19.9200113  22.1182753  49.0176493
  19.9820113  22.2202753  49.7926493  22.5190113  34.1572753  42.3396493
  23.0650113  34.8362753  42.3936493  22.1690113  34.2392753  41.5446493
  22.5480113  34.2702753  42.2296493  29.3620113  17.4602753  47.7036493
  29.0820113  18.2852753  47.6596493  30.0780113  17.5132753  48.1996493
  29.4270113  17.5902753  47.7706493  21.7170113  18.1752753  49.7326493
  22.4220113  18.4952753  49.3306493  21.9580113  17.3682753  49.9596493
  21.8560113  18.1032753  49.7066493  20.7020113  32.3852753  45.7286493
  20.0780113  32.9672753  45.5466493  20.9500113  32.0992753  44.9426493
  20.6460113  32.4292753  45.5856493  25.0110113  29.0192753  52.7176493
  25.7680113  29.3052753  52.3916493  24.4640113  29.0712753  52.0396493
  25.0420113  29.0692753  52.5686493  22.2960113  27.1612753  35.6436493
  21.4910113  26.9842753  35.3586493  22.2630113  28.0122753  35.8356493
  22.1720113  27.2602753  35.6306493  18.2260113  23.2282753  45.7936493
  18.6660113  23.1252753  45.0476493  18.7710113  22.9152753  46.3986493
  18.3710113  23.1672753  45.7726493  26.2420113  22.3302753  51.3856493
  25.5940113  22.8002753  51.7336493  26.8070113  22.2412753  52.0446493
  26.2300113  22.3862753  51.5346493  25.9300113  23.8672753  47.6836493
  26.2320113  24.2872753  48.3866493  25.9660113  23.0272753  47.9156493
  25.9800113  23.8052753  47.8216493  28.4780113  23.3142753  39.9356493
  28.6850113  23.1132753  40.7596493  29.2340113  23.5822753  39.5936493
  28.6200113  23.3242753  40.0066493  21.7730113  18.2132753  45.8406493
  20.9470113  18.0642753  46.0776493  21.7330113  18.2482753  44.9696493
  21.6450113  18.1962753  45.7466493  29.5000113  19.3972753  41.4096493
  28.7860113  18.9262753  41.5806493  29.3380113  19.7382753  40.6236493
  29.3710113  19.3782753  41.3186493  23.4140113  29.2532753  50.6286493
  22.6190113  29.1892753  50.9796493  23.4850113  30.1002753  50.4336493
  23.3070113  29.3682753  50.6516493  14.3380113  18.6112753  51.8756493
  14.1980113  19.4062753  51.5446493  13.5520113  18.3682753  52.1646493
  14.2010113  18.6932753  51.8696493  19.2440113  35.4602753  45.9456493
  19.2550113  35.5192753  46.8156493  18.8190113  34.7132753  45.7956493
  19.1830113  35.3582753  46.0516493  17.4020113  21.3552753  39.1006493
  17.5280113  21.0262753  38.3026493  16.5900113  21.1062753  39.2996493
  17.3010113  21.2702753  39.0126493  26.1590113  28.5082753  42.1446493
  26.2350113  28.8492753  42.9436493  26.3280113  27.6612753  42.2656493
  26.1950113  28.4332753  42.2806493  23.6810113  27.7822753  41.7096493
  23.3830113  27.4672753  42.4666493  24.3760113  28.2552753  41.9446493
  23.7400113  27.8052753  41.8566493  23.9030113  31.9002753  49.7366493
  24.5900113  31.7862753  50.2616493  24.0370113  32.6912753  49.3926493
  24.0240113  32.0002753  49.7636493  32.0790113  24.5092753  51.5476493
  31.2240113  24.3872753  51.6736493  32.2320113  24.1142753  50.7846493
  31.9750113  24.4322753  51.4536493  26.5920113  25.1742753  50.1236493
  26.3370113  24.4552753  50.5456493  27.4130113  25.2902753  50.3936493
  26.6760113  25.0852753  50.2256493  16.0080113  34.9582753  51.3876493
  15.3540113  34.3892753  51.4856493  15.6330113  35.7312753  51.5386493
  15.8560113  34.9882753  51.4246493  24.5260113  26.3642753  53.3106493
  24.8490113  27.0502753  52.8786493  23.8220113  26.6872753  53.7126493
  24.4690113  26.5132753  53.3056493  24.3110113  29.8282753  47.1696493
  23.6170113  30.2302753  47.5126493  24.9880113  30.2612753  47.5086493
  24.3080113  29.9512753  47.2706493  17.3790113  23.3662753  49.5166493
  17.7540113  23.9852753  49.0296493  18.0530113  22.8922753  49.8016493
  17.5340113  23.3882753  49.4866493  15.1540113  21.8142753  48.7916493
  15.2310113  21.6452753  47.9386493  15.9000113  22.2202753  48.9886493
  15.2750113  21.8492753  48.6946493  30.7130113  24.4542753  39.2316493
  30.8160113  24.3962753  38.3676493  31.4540113  24.1222753  39.5496493
  30.8380113  24.3972753  39.1506493  17.7080113  19.2242753  51.2026493
  17.6270113  18.3802753  51.4086493  17.3940113  19.2682753  50.3896493
  17.6500113  19.1062753  51.1126493  24.6330113  31.4192753  40.3386493
  24.4280113  32.2522753  40.1796493  23.8580113  31.0372753  40.4606493
  24.4880113  31.4862753  40.3336493  29.8150113  24.6002753  48.5876493
  29.8130113  23.7372753  48.7116493  29.8820113  24.9242753  49.3946493
  29.8250113  24.5202753  48.7246493  14.5510113  27.0402753  49.0156493
  14.8710113  27.2592753  48.2346493  14.4510113  26.1752753  48.9606493
  14.5830113  26.9452753  48.8926493  16.0070113  22.9762753  35.6336493
  15.3350113  22.9902753  36.1896493  16.1020113  22.1282753  35.4496493
  15.9220113  22.8532753  35.6886493  25.6940113  19.4002753  52.3696493
  25.7860113  20.1122753  52.8636493  25.0570113  18.9552753  52.7666493
  25.6130113  19.4392753  52.5016493  24.6880113  19.5902753  43.2236493
  23.9880113  20.1082753  43.1676493  24.7260113  19.2102753  42.4396493
  24.5900113  19.6112753  43.0996493  19.9950113  31.6812753  36.7476493
  20.4360113  31.7612753  37.4956493  19.1900113  31.4652753  37.0056493
  19.9410113  31.6612753  36.8966493  28.2860113  20.1062753  46.0236493
  29.1410113  20.2052753  46.1686493  27.9170113  20.6592753  46.5886493
  28.3580113  20.2032753  46.1286493  19.3140113  26.3322753  50.4006493
  18.9180113  27.1062753  50.4756493  18.9080113  25.9592753  49.7246493
  19.1960113  26.3912753  50.3116493  28.5900113  25.3862753  44.5146493
  29.2560113  25.9272753  44.6746493  28.2450113  25.6972753  43.7756493
  28.6370113  25.5122753  44.4296493  17.3240113  30.7512753  37.3486493
  17.0800113  30.4442753  38.1286493  17.2910113  30.0482753  36.8326493
  17.2830113  30.6022753  37.3876493  20.1430113  28.9962753  36.0916493
  19.3250113  28.7282753  36.2316493  20.1150113  29.8482753  36.2766493
  20.0180113  29.0832753  36.1396493  19.7430113  19.3092753  47.8506493
  18.8790113  19.3932753  47.9306493  19.9630113  18.7952753  48.5196493
  19.6480113  19.2462753  47.9616493  31.7610113  17.9442753  49.1796493
  31.7090113  17.9002753  50.0496493  32.4480113  17.4412753  48.9896493
  31.8550113  17.8642753  49.2796493  23.8460113  20.0572753  46.2246493
  23.1090113  19.6032753  46.3376493  24.4170113  19.6552753  46.7476493
  23.8210113  19.9302753  46.3186493  26.5780113  30.9052753  48.0126493
  26.7840113  31.2062753  48.8046493  26.5170113  31.6272753  47.5276493
  26.5990113  31.0562753  48.0576493  21.3490113  24.3862753  51.4286493
  21.0270113  23.8102753  50.8586493  20.9900113  25.1412753  51.1826493
  21.2490113  24.4122753  51.3086493  22.1450113  17.6382753  36.0556493
  22.2230113  17.8852753  35.2226493  21.4020113  18.0152753  36.3136493
  22.0470113  17.7302753  35.9706493  31.3900113  29.5442753  47.4706493
  31.3580113  28.6822753  47.3356493  30.6970113  29.8462753  47.0366493
  31.2830113  29.4612753  47.3866493  19.7840113  34.7422753  51.6766493
  19.8250113  34.8682753  52.5396493  20.4350113  34.1822753  51.5206493
  19.8860113  34.6782753  51.7816493  16.9630113  19.3922753  48.4986493
  16.6200113  18.6252753  48.2646493  16.2680113  19.9162753  48.5626493
  16.8100113  19.3562753  48.4736493  26.0090113  18.2482753  45.4756493
  26.6790113  18.7922753  45.6026493  25.5060113  18.6722753  44.9026493
  26.0340113  18.3912753  45.4096493  17.3770113  33.1252753  53.0366493
  17.9720113  33.5562753  53.5086493  17.0130113  33.7492753  52.5476493
  17.4110113  33.2812753  53.0336493  25.3680113  24.0562753  42.9686493
  25.9190113  23.4492753  43.2686493  24.9430113  24.3192753  43.6836493
  25.3870113  24.0052753  43.1176493  15.6160113  22.7062753  42.4546493
  15.2480113  23.0082753  43.1856493  16.1500113  22.0772753  42.7386493
  15.6400113  22.6582753  42.6046493  15.3040113  31.1142753  49.9656493
  14.7300113  31.5302753  50.4746493  16.0370113  31.5792753  50.0606493
  15.3280113  31.2442753  50.0546493  17.0900113  34.3812753  38.7406493
  16.9450113  34.5372753  37.8946493  17.9560113  34.4602753  38.8186493
  17.1970113  34.4162753  38.6276493  21.2570113  26.7782753  38.4686493
  21.3570113  26.9172753  37.6136493  22.0750113  26.7182753  38.7646493
  21.3920113  26.7892753  38.3856493  31.2370113  21.8242753  53.4196493
  31.0410113  22.4682753  53.9746493  30.5150113  21.3342753  53.4116493
  31.1020113  21.8472753  53.5006493  31.1360113  22.7652753  46.3906493
  30.3030113  23.0152753  46.3186493  31.0800113  21.9252753  46.6196493
  31.0050113  22.6782753  46.4136493  20.3960113  19.7532753  51.5846493
  20.6300113  19.1772753  50.9716493  19.5540113  19.5722753  51.7256493
  20.3060113  19.6412753  51.5146493  17.7770113  33.1962753  45.2176493
  17.6980113  32.3862753  44.9016493  17.3330113  33.6832753  44.6456493
  17.7000113  33.1482753  45.0866493  23.3780113  29.3152753  37.7006493
  24.0950113  28.9682753  37.3446493  23.3440113  30.1152753  37.3526493
  23.4790113  29.3822753  37.5966493  15.3490113  35.4402753  48.7986493
  15.8420113  35.3842753  49.5166493  15.5370113  34.7072753  48.3636493
  15.4500113  35.3232753  48.8406493  24.7870113  17.9562753  21.9394083
  24.5420113  18.4442753  21.2594083  25.6500113  17.8832753  21.8394083
  24.8780113  18.0172753  21.8244083  14.4650113  29.0122753  22.0664083
  14.0240113  29.1302753  22.8094083  14.1820113  28.2372753  21.7814083
  14.3580113  28.9152753  22.1344083  30.7400113  32.3132753  19.5814083
  31.4410113  31.7942753  19.5774083  30.1530113  31.8682753  19.1124083
  30.7570113  32.1702753  19.5114083  14.2080113  22.8042753  18.5734083
  13.4300113  22.9662753  18.2134083  14.2470113  21.9332753  18.5954083
  14.0990113  22.6992753  18.5234083  17.3470113  28.0672753  17.2454083
  16.9550113  27.6962753  16.5594083  17.2670113  27.4692753  17.8744083
  17.2770113  27.9242753  17.2364083  16.9740113  29.7082753  21.1454083
  17.5820113  29.5382753  21.7484083  16.2230113  29.5682753  21.5664083
  16.9530113  29.6622753  21.2964083  21.2560113  19.0432753  21.0944083
  21.1860113  19.7202753  20.5484083  21.9970113  18.6552753  20.8454083
  21.3550113  19.0862753  20.9764083  15.8650113  32.7992753  17.2224083
  16.3320113  32.8832753  16.4904083  16.3200113  32.2212753  17.6914083
  16.0010113  32.7262753  17.1834083  14.4050113  31.7472753  28.3214083
  14.5340113  31.4672753  29.1374083  13.7950113  31.2062753  28.0124083
  14.3340113  31.6262753  28.3964083  20.9790113  29.2722753  33.3884083
  20.7430113  29.2692753  34.2284083  20.2310113  29.1242753  32.9644083
  20.8330113  29.2492753  33.4494083  15.8510113  26.2682753  22.5234083
  15.3890113  25.8762753  21.8964083  16.5510113  25.7552753  22.6154083
  15.8860113  26.1352753  22.4444083  20.3590113  21.8782753  27.8704083
  21.0370113  21.8962753  27.3214083  20.3140113  21.0422753  28.1154083
  20.4520113  21.7572753  27.8254083  20.9610113  32.4642753  30.6514083
  21.0990113  33.2242753  30.2444083  21.7520113  32.0992753  30.6784083
  21.0980113  32.5232753  30.5954083  17.8520113  24.3682753  22.5464083
  18.6690113  24.1812753  22.7894083  17.3750113  23.7542753  22.9424083
  17.9020113  24.2502753  22.6414083  22.0560113  30.3492753  25.1564083
  22.4040113  29.5502753  25.1864083  22.7210113  30.8532753  24.9014083
  22.2060113  30.3052753  25.1234083  22.1130113  29.7982753  21.3674083
  22.4440113  29.1542753  21.8534083  22.3530113  29.5872753  20.5564083
  22.1970113  29.6722753  21.3194083  24.0810113  23.9292753  32.7064083
  23.2330113  23.8302753  32.5284083  24.1100113  24.6742753  33.1604083
  23.9600113  24.0252753  32.7474083  18.4490113  19.4622753  21.8124083
  18.1530113  19.9632753  21.1624083  19.3160113  19.5402753  21.7554083
  18.5330113  19.5482753  21.7084083  28.6390113  16.8892753  31.8204083
  28.4810113  17.6582753  31.4384083  27.8670113  16.6692753  32.1644083
  28.5010113  16.9702753  31.8154083  21.4280113  18.6042753  24.0354083
  21.5010113  19.4642753  24.1644083  21.3900113  18.5292753  23.1674083
  21.4330113  18.7202753  23.9264083  26.1010113  21.5302753  16.3344083
  25.6510113  22.2112753  16.6414083  26.2150113  21.0262753  17.0374083
  26.0520113  21.5562753  16.4834083  14.3070113  24.0292753  25.5364083
  14.0510113  24.8602753  25.4614083  13.6430113  23.6462753  25.9534083
  14.1710113  24.0952753  25.5874083  14.2170113  33.7392753  23.4364083
  13.6250113  34.2972753  23.1234083  14.6430113  33.4702753  22.7244083
  14.1930113  33.7812753  23.2854083  20.0570113  31.5832753  20.9164083
  19.4780113  31.3082753  21.5084083  20.6810113  30.9742753  20.9414083
  20.0640113  31.4532753  21.0074083  26.2000113  33.8712753  18.4384083
  26.9270113  34.3432753  18.5404083  26.4290113  33.0772753  18.7184083
  26.3420113  33.8242753  18.4954083  24.3680113  34.2632753  20.4284083
  24.5820113  34.7902753  21.0904083  25.1350113  34.0892753  20.0494083
  24.5130113  34.3152753  20.4704083  17.3360113  18.8462753  26.0274083
  16.8150113  18.2182753  25.7194083  17.9270113  18.4092753  26.4984083
  17.3470113  18.6882753  26.0514083  20.6420113  20.9792753  35.3254083
  20.7590113  20.5252753  34.5894083  20.9300113  21.7772753  35.1224083
  20.7020113  21.0302753  35.1864083  15.7620113  32.4092753  21.3674083
  16.4180113  31.8342753  21.3824083  16.1510113  33.1582753  21.1464083
  15.9170113  32.4342753  21.3374083  31.4950113  21.5032753  22.6294083
  31.1490113  22.1812753  23.0554083  30.8590113  20.9052753  22.6454083
  31.3500113  21.5152753  22.6944083  16.3750113  20.5762753  34.3094083
  15.5970113  20.1862753  34.2374083  16.8660113  20.1642753  33.7184083
  16.3320113  20.4572753  34.2114083  16.5800113  30.8962753  24.8674083
  17.0030113  30.5402753  24.1934083  16.9040113  30.4742753  25.5594083
  16.6900113  30.7812753  24.8704083  19.8110113  33.7482753  24.1634083
  20.6550113  33.8522753  23.9684083  19.5140113  34.5662753  24.2314083
  19.8920113  33.8842753  24.1444083  23.0240113  18.2192753  33.4774083
  23.2020113  17.4102753  33.2024083  22.8810113  18.6602753  32.7384083
  23.0290113  18.1652753  33.3274083  23.6180113  23.1452753  22.2504083
  23.9050113  22.9132753  21.4604083  24.3500113  23.2242753  22.7194083
  23.7680113  23.1222753  22.2034083  24.3400113  23.4842753  17.3714083
  24.6210113  24.2722753  17.6204083  23.5640113  23.6492753  17.0084083
  24.2670113  23.6252753  17.3544083  28.3810113  35.4582753  18.8384083
  29.0460113  35.3102753  18.2934083  28.7410113  35.3752753  19.6284083
  28.5330113  35.4242753  18.8744083  18.8090113  34.9672753  29.9034083
  19.1010113  34.9002753  30.7234083  18.1830113  34.3622753  29.8584083
  18.7600113  34.8682753  30.0184083  31.1700113  19.8262753  27.9984083
  31.9270113  19.8982753  27.5704083  31.2330113  19.0532753  28.3974083
  31.2910113  19.7232753  27.9934083  13.7230113  21.1242753  31.8954083
  13.7190113  21.7112753  32.5414083  14.3170113  21.4362753  31.3384083
  13.8100113  21.2572753  31.9084083  23.1990113  31.6552753  17.1874083
  23.0180113  32.2002753  17.8444083  23.9650113  31.9452753  16.8864083
  23.2850113  31.7792753  17.2404083  26.7060113  19.5512753  18.2414083
  27.2460113  18.8692753  18.3174083  26.7680113  19.9492753  19.0154083
  26.7950113  19.5092753  18.3674083  14.6600113  20.7192753  20.8104083
  14.5460113  19.8552753  20.8414083  14.1850113  21.0132753  21.4804083
  14.5730113  20.6352753  20.9134083  16.8020113  33.1292753  29.0254083
  16.1040113  32.6212753  29.1514083  17.0620113  32.9242753  28.2174083
  16.7370113  33.0242753  28.9244083  23.9640113  21.9272753  19.5554083
  23.4560113  21.2652753  19.3014083  24.0160113  22.4312753  18.8454083
  23.8970113  21.9042753  19.4134083  24.5130113  34.6222753  29.9354083
  25.2810113  34.5422753  29.5294083  23.9300113  34.5012753  29.2974083
  24.5400113  34.5922753  29.7814083  23.9640113  18.8682753  19.4464083
  23.5090113  18.4662753  18.8204083  24.7370113  19.0232753  19.0714083
  24.0110113  18.8322753  19.2984083  22.5620113  21.2352753  23.9684083
  22.6360113  21.8032753  23.3104083  22.6830113  21.7272753  24.6784083
  22.5900113  21.3922753  23.9764083  18.1630113  31.9802753  31.5924083
  19.0040113  32.0432753  31.3704083  18.1260113  32.3772753  32.3684083
  18.2820113  32.0482753  31.6744083  17.1700113  17.0582753  22.3164083
  17.7060113  17.7462753  22.3064083  17.1730113  16.7842753  21.4884083
  17.2490113  17.1192753  22.1924083  20.1260113  27.4912753  26.3414083
  20.2980113  27.2812753  27.1704083  19.4710113  26.9572753  26.1254083
  20.0550113  27.3812753  26.4324083  26.3540113  21.4052753  29.8564083
  26.2590113  21.7242753  30.6624083  25.7610113  20.7662753  29.8184083
  26.2520113  21.3572753  29.9704083  20.8760113  27.4292753  28.9314083
  20.9290113  28.2762753  29.1334083  20.5910113  27.0592753  29.6684083
  20.8420113  27.4992753  29.0694083  27.6100113  17.3492753  22.6924083
  27.6590113  17.0312753  23.5034083  27.9330113  16.7052753  22.1994083
  27.6650113  17.2072753  22.7394083  13.6970113  31.8002753  35.1424083
  14.4530113  32.1492753  35.4004083  13.8740113  30.9472753  35.0854083
  13.8350113  31.7252753  35.1724083  30.0740113  21.5852753  31.0004083
  30.8460113  21.3602753  31.3374083  29.5990113  21.8022753  31.7004083
  30.1180113  21.5842753  31.1534083  17.6180113  20.8682753  23.9704083
  17.8900113  20.4382753  23.2624083  17.4420113  20.2322753  24.5414083
  17.6320113  20.7112753  23.9504083  30.3060113  28.5632753  18.1884083
  30.4250113  28.2762753  19.0034083  31.1130113  28.5842753  17.8584083
  30.4420113  28.5242753  18.2604083  17.4420113  28.2952753  23.5194083
  18.2930113  28.2152753  23.3464083  17.0850113  27.6132753  23.1074083
  17.5150113  28.1822753  23.4324083  16.2090113  35.0202753  24.7564083
  15.5360113  34.5222753  24.5114083  16.6120113  35.2052753  24.0054083
  16.1690113  34.9742753  24.6094083  15.7590113  21.9702753  27.0524083
  16.6020113  22.1902753  27.0094083  15.3700113  22.5432753  26.5214083
  15.8260113  22.0872753  26.9674083  28.2010113  25.1002753  17.7734083
  27.9810113  25.8312753  17.3514083  27.7530113  25.1512753  18.5204083
  28.1020113  25.2152753  17.8214083  19.8100113  28.3022753  21.7544083
  20.5230113  28.7972753  21.8444083  20.0320113  27.7352753  21.1284083
  19.9480113  28.2912753  21.6754083  32.3880113  19.9612753  17.2264083
  31.7260113  19.3932753  17.2494083  32.1950113  20.4732753  16.5464083
  32.2620113  19.9532753  17.1294083  13.9660113  29.9452753  25.0744083
  13.2990113  30.4332753  25.3504083  14.6460113  30.4902753  25.1034083
  13.9680113  30.0972753  25.1194083  21.6130113  23.6552753  35.1704083
  21.1290113  24.2322753  35.6124083  21.5850113  23.9502753  34.3494083
  21.5370113  23.7842753  35.1144083  14.0320113  26.6292753  20.1774083
  13.8470113  25.7902753  20.3294083  14.6910113  26.5932753  19.6074083
  14.1020113  26.5002753  20.1154083  30.3900113  19.5192753  19.5054083
  31.1360113  19.1122753  19.7044083  30.6530113  20.2342753  19.0804083
  30.5390113  19.5652753  19.4724083  24.3330113  32.0052753  24.0814083
  23.8100113  32.6392753  23.7884083  24.6430113  31.6412753  23.3524083
  24.3010113  32.0452753  23.9304083  14.2040113  30.7932753  19.7524083
  14.7560113  31.3622753  20.1164083  13.9720113  30.2782753  20.4174083
  14.2510113  30.8012753  19.9044083  18.4080113  29.7932753  26.8414083
  18.8750113  30.0822753  27.5194083  18.9800113  29.3152753  26.3874083
  18.5620113  29.7652753  26.8744083  14.0340113  29.2422753  17.3804083
  14.7900113  28.8102753  17.4384083  14.0490113  29.7742753  18.0714083
  14.1480113  29.2572753  17.4914083  14.9740113  27.4632753  25.3854083
  15.4050113  27.3342753  24.6384083  14.7690113  28.3112753  25.3594083
  15.0070113  27.5692753  25.2714083  21.3200113  21.0272753  19.0354083
  21.3180113  20.9102753  18.1704083  21.1390113  21.8752753  19.1274083
  21.2930113  21.1352753  18.9214083  19.0580113  30.9792753  23.6674083
  19.1840113  31.8222753  23.8544083  19.7260113  30.5802753  24.0634083
  19.1760113  31.0452753  23.7534083  17.1880113  24.4622753  33.5294083
  16.6520113  23.9562753  33.9974083  17.2080113  24.0722753  32.7494083
  17.1110113  24.3292753  33.4834083  17.6730113  23.8592753  18.6694083
  17.5450113  23.4112753  19.4074083  17.0910113  23.5172753  18.1174083
  17.5680113  23.7422753  18.6974083  17.8400113  25.6892753  25.2684083
  17.0590113  25.6302753  24.8854083  17.9120113  24.9372753  25.7054083
  17.7350113  25.5702753  25.2764083  18.2700113  25.4262753  28.7364083
  18.2950113  24.7512753  28.1854083  17.6240113  25.9222753  28.4244083
  18.1790113  25.3992753  28.6094083  22.3700113  34.2032753  28.1284083
  22.0930113  33.5622753  27.6054083  22.1620113  34.9292753  27.6904083
  22.2990113  34.2162753  27.9864083  24.8100113  19.0452753  30.5614083
  24.9590113  18.2202753  30.3184083  25.1890113  19.1002753  31.3454083
  24.8880113  18.9312753  30.6414083  26.3580113  21.1082753  20.6434083
  26.8480113  21.8252753  20.5664083  25.5680113  21.3692753  20.3804083
  26.3140113  21.2522753  20.5934083  16.0690113  26.7812753  34.2954083
  16.0320113  27.2822753  33.5814083  16.4000113  26.0292753  34.0004083
  16.1120113  26.7432753  34.1464083  21.9680113  31.8312753  33.7304083
  22.3220113  31.6532753  34.5074083  21.5320113  31.1022753  33.5314083
  21.9560113  31.6972753  33.8164083  22.9400113  22.5782753  26.3684083
  23.4200113  23.2772753  26.5764083  23.3130113  21.9312753  26.8194083
  23.0660113  22.5862753  26.4654083  25.1290113  25.7472753  18.6424083
  25.1210113  26.4692753  18.1524083  24.4900113  25.8822753  19.2194083
  25.0340113  25.8742753  18.6554083  26.1460113  32.6832753  26.4674083
  25.5430113  32.3872753  25.9104083  26.6910113  33.1352753  25.9584083
  26.1370113  32.7062753  26.3094083  20.0510113  34.3462753  20.3154083
  19.9040113  33.5702753  20.6864083  20.7400113  34.1992753  19.8004083
  20.1310113  34.2092753  20.2944083  19.7220113  18.0892753  18.3034083
  19.8190113  17.9822753  19.1644083  19.0140113  18.5952753  18.2384083
  19.6320113  18.1482753  18.4214083  22.3430113  33.8622753  18.7174083
  22.9650113  34.0252753  19.3074083  22.3790113  34.5532753  18.1854083
  22.4400113  33.9882753  18.7264083  30.4510113  17.8302753  33.7004083
  29.8140113  17.4302753  33.2584083  30.4770113  17.3992753  34.4584083
  30.3610113  17.7082753  33.7464083  16.8440113  26.3962753  19.5464083
  17.1680113  25.6172753  19.3244083  17.4900113  26.7642753  20.0014083
  16.9870113  26.3352753  19.5804083  13.8410113  18.0572753  20.5144083
  13.9700113  17.3492753  20.0224083  13.4740113  17.7392753  21.2394083
  13.8060113  17.9052753  20.5494083  23.5340113  25.7382753  20.9714083
  23.5930113  26.3882753  21.5504083  23.3450113  25.0422753  21.4624083
  23.5150113  25.7312753  21.1294083  18.0300113  20.2552753  17.4834083
  17.5190113  20.3082753  16.7774083  18.8140113  20.4952753  17.1874083
  18.0700113  20.2982753  17.3354083  22.7570113  27.7852753  25.4024083
  21.9100113  27.5912753  25.4834083  23.0810113  27.6202753  26.1954083
  22.6790113  27.7322753  25.5314083  19.5090113  34.5152753  16.2884083
  19.9480113  33.8182753  16.5764083  19.7160113  35.1392753  16.8614083
  19.6050113  34.5042753  16.4154083  16.6050113  27.4782753  27.7184083
  17.3270113  27.9662753  27.6814083  16.3350113  27.4482753  26.8894083
  16.6720113  27.5462753  27.5904083  19.8350113  22.6492753  24.4534083
  20.6810113  22.4592753  24.5514083  19.4650113  21.8722753  24.3154083
  19.9050113  22.5062753  24.4474083  32.4520113  34.2332753  18.7804083
  33.1460113  33.7662753  18.5324083  31.9130113  33.6352753  19.1174083
  32.4750113  34.0752753  18.7934083  14.6560113  23.9872753  21.1084083
  15.1450113  23.6952753  21.7694083  14.7850113  23.3942753  20.4814083
  14.7470113  23.8562753  21.1134083  19.1810113  25.4212753  16.5944083
  18.5710113  25.0162753  17.0684083  18.7950113  25.5392753  15.8214083
  19.0340113  25.3782753  16.5504083  16.0000113  28.5302753  31.9964083
  15.5790113  28.0122753  31.4354083  15.6480113  29.3162753  31.8534083
  15.8860113  28.5702753  31.8924083  20.6360113  23.8822753  19.3044083
  20.9080113  24.7082753  19.3714083  19.7730113  23.9572753  19.2084083
  20.5490113  24.0152753  19.2994083  28.6090113  21.0042753  33.9364083
  28.0840113  21.4632753  34.4604083  28.2480113  20.2092753  33.9304083
  28.4780113  20.9542753  34.0124083  14.1160113  19.8522753  25.8404083
  14.1600113  20.1962753  25.0394083  14.8710113  20.0892753  26.2074083
  14.2340113  19.9382753  25.7764083  28.6830113  31.3162753  17.9074083
  29.0170113  30.5102753  17.9424083  27.9280113  31.2442753  18.3374083
  28.6210113  31.1862753  17.9764083  29.1650113  23.1502753  23.5664083
  28.4200113  22.8272753  23.8844083  29.1670113  23.9762753  23.8464083
  29.0550113  23.2242753  23.6544083  26.0570113  29.1912753  17.3104083
  26.7410113  28.6772753  17.1414083  25.6400113  29.2372753  16.5454083
  26.0960113  29.1222753  17.1724083  20.7390113  30.3412753  28.6144083
  20.4410113  30.9332753  29.1814083  20.7940113  30.7832753  27.8654083
  20.7030113  30.4942753  28.5874083  18.7180113  29.2912753  32.0124083
  17.9120113  29.0012753  32.1794083  18.6290113  30.1592753  32.0184083
  18.5860113  29.3762753  32.0374083  19.9650113  22.3672753  30.8464083
  20.1260113  21.6232753  31.2734083  19.9200113  22.1182753  30.0114083
  19.9820113  22.2202753  30.7864083  22.5190113  34.1572753  23.3334083
  23.0650113  34.8362753  23.3874083  22.1690113  34.2392753  22.5384083
  22.5480113  34.2702753  23.2234083  29.3620113  17.4602753  28.6974083
  29.0820113  18.2852753  28.6534083  30.0780113  17.5132753  29.1934083
  29.4270113  17.5902753  28.7644083  21.7170113  18.1752753  30.7264083
  22.4220113  18.4952753  30.3244083  21.9580113  17.3682753  30.9534083
  21.8560113  18.1032753  30.7004083  20.7020113  32.3852753  26.7224083
  20.0780113  32.9672753  26.5404083  20.9500113  32.0992753  25.9364083
  20.6460113  32.4292753  26.5794083  25.0110113  29.0192753  33.7114083
  25.7680113  29.3052753  33.3854083  24.4640113  29.0712753  33.0334083
  25.0420113  29.0692753  33.5624083  30.7830113  23.7152753  17.5544083
  31.1610113  24.3922753  17.1544083  29.9410113  23.9392753  17.5854083
  30.7140113  23.8482753  17.4994083  22.2960113  27.1612753  16.6374083
  21.4910113  26.9842753  16.3524083  22.2630113  28.0122753  16.8294083
  22.1720113  27.2602753  16.6244083  18.2260113  23.2282753  26.7874083
  18.6660113  23.1252753  26.0414083  18.7710113  22.9152753  27.3924083
  18.3710113  23.1672753  26.7664083  26.2420113  22.3302753  32.3794083
  25.5940113  22.8002753  32.7274083  26.8070113  22.2412753  33.0384083
  26.2300113  22.3862753  32.5284083  23.3550113  34.0342753  32.6024083
  23.8330113  33.4342753  32.1864083  23.0040113  33.5912753  33.2674083
  23.3740113  33.8802753  32.6394083  28.4780113  23.3142753  20.9294083
  28.6850113  23.1132753  21.7534083  29.2340113  23.5822753  20.5874083
  28.6200113  23.3242753  21.0004083  29.5000113  19.3972753  22.4034083
  28.7860113  18.9262753  22.5744083  29.3380113  19.7382753  21.6174083
  29.3710113  19.3782753  22.3124083  29.9430113  27.3412753  20.7834083
  30.4190113  26.6122753  20.7354083  29.1220113  27.0552753  20.7074083
  29.8920113  27.1912753  20.7644083  23.4140113  29.2532753  31.6224083
  22.6190113  29.1892753  31.9734083  23.4850113  30.1002753  31.4274083
  23.3070113  29.3682753  31.6454083  14.3380113  18.6112753  32.8694083
  14.1980113  19.4062753  32.5384083  13.5520113  18.3682753  33.1584083
  14.2010113  18.6932753  32.8634083  19.2440113  35.4602753  26.9394083
  19.2550113  35.5192753  27.8094083  18.8190113  34.7132753  26.7894083
  19.1830113  35.3582753  27.0454083  26.1590113  28.5082753  23.1384083
  26.2350113  28.8492753  23.9374083  26.3280113  27.6612753  23.2594083
  26.1950113  28.4332753  23.2744083  23.6810113  27.7822753  22.7034083
  23.3830113  27.4672753  23.4604083  24.3760113  28.2552753  22.9384083
  23.7400113  27.8052753  22.8504083  23.9030113  31.9002753  30.7304083
  24.5900113  31.7862753  31.2554083  24.0370113  32.6912753  30.3864083
  24.0240113  32.0002753  30.7574083  16.0080113  34.9582753  32.3814083
  15.3540113  34.3892753  32.4794083  15.6330113  35.7312753  32.5324083
  15.8560113  34.9882753  32.4184083  24.3110113  29.8282753  28.1634083
  23.6170113  30.2302753  28.5064083  24.9880113  30.2612753  28.5024083
  24.3080113  29.9512753  28.2644083  17.3790113  23.3662753  30.5104083
  17.7540113  23.9852753  30.0234083  18.0530113  22.8922753  30.7954083
  17.5340113  23.3882753  30.4804083  15.1540113  21.8142753  29.7854083
  15.2310113  21.6452753  28.9324083  15.9000113  22.2202753  29.9824083
  15.2750113  21.8492753  29.6884083  30.7130113  24.4542753  20.2254083
  30.8160113  24.3962753  19.3614083  31.4540113  24.1222753  20.5434083
  30.8380113  24.3972753  20.1444083  17.7080113  19.2242753  32.1964083
  17.6270113  18.3802753  32.4024083  17.3940113  19.2682753  31.3834083
  17.6500113  19.1062753  32.1064083  24.6330113  31.4192753  21.3324083
  24.4280113  32.2522753  21.1734083  23.8580113  31.0372753  21.4544083
  24.4880113  31.4862753  21.3274083  14.5510113  27.0402753  30.0094083
  14.8710113  27.2592753  29.2284083  14.4510113  26.1752753  29.9544083
  14.5830113  26.9452753  29.8864083  16.0070113  22.9762753  16.6274083
  15.3350113  22.9902753  17.1834083  16.1020113  22.1282753  16.4434083
  15.9220113  22.8532753  16.6824083  24.6880113  19.5902753  24.2174083
  23.9880113  20.1082753  24.1614083  24.7260113  19.2102753  23.4334083
  24.5900113  19.6112753  24.0934083  19.9950113  31.6812753  17.7414083
  20.4360113  31.7612753  18.4894083  19.1900113  31.4652753  17.9994083
  19.9410113  31.6612753  17.8904083  28.2860113  20.1062753  27.0174083
  29.1410113  20.2052753  27.1624083  27.9170113  20.6592753  27.5824083
  28.3580113  20.2032753  27.1224083  19.3140113  26.3322753  31.3944083
  18.9180113  27.1062753  31.4694083  18.9080113  25.9592753  30.7184083
  19.1960113  26.3912753  31.3054083  17.3240113  30.7512753  18.3424083
  17.0800113  30.4442753  19.1224083  17.2910113  30.0482753  17.8264083
  17.2830113  30.6022753  18.3814083  20.1430113  28.9962753  17.0854083
  19.3250113  28.7282753  17.2254083  20.1150113  29.8482753  17.2704083
  20.0180113  29.0832753  17.1334083  19.7430113  19.3092753  28.8444083
  18.8790113  19.3932753  28.9244083  19.9630113  18.7952753  29.5134083
  19.6480113  19.2462753  28.9554083  31.7610113  17.9442753  30.1734083
  31.7090113  17.9002753  31.0434083  32.4480113  17.4412753  29.9834083
  31.8550113  17.8642753  30.2734083  23.8460113  20.0572753  27.2184083
  23.1090113  19.6032753  27.3314083  24.4170113  19.6552753  27.7414083
  23.8210113  19.9302753  27.3124083  26.1120113  35.1192753  33.2524083
  25.3590113  35.1012753  32.8114083  26.2800113  35.9712753  33.3364083
  26.0260113  35.2422753  33.1994083  21.3490113  24.3862753  32.4224083
  21.0270113  23.8102753  31.8524083  20.9900113  25.1412753  32.1764083
  21.2490113  24.4122753  32.3024083  22.1450113  17.6382753  17.0494083
  22.2230113  17.8852753  16.2164083  21.4020113  18.0152753  17.3074083
  22.0470113  17.7302753  16.9644083  19.7840113  34.7422753  32.6704083
  19.8250113  34.8682753  33.5334083  20.4350113  34.1822753  32.5144083
  19.8860113  34.6782753  32.7754083  16.9630113  19.3922753  29.4924083
  16.6200113  18.6252753  29.2584083  16.2680113  19.9162753  29.5564083
  16.8100113  19.3562753  29.4674083  26.0090113  18.2482753  26.4694083
  26.6790113  18.7922753  26.5964083  25.5060113  18.6722753  25.8964083
  26.0340113  18.3912753  26.4034083  17.3770113  33.1252753  34.0304083
  17.9720113  33.5562753  34.5024083  17.0130113  33.7492753  33.5414083
  17.4110113  33.2812753  34.0274083  15.6160113  22.7062753  23.4484083
  15.2480113  23.0082753  24.1794083  16.1500113  22.0772753  23.7324083
  15.6400113  22.6582753  23.5984083  15.3040113  31.1142753  30.9594083
  14.7300113  31.5302753  31.4684083  16.0370113  31.5792753  31.0544083
  15.3280113  31.2442753  31.0484083  27.3380113  25.8872753  20.5244083
  27.4060113  25.0372753  20.7054083  26.5150113  25.9732753  20.2464083
  27.2260113  25.7742753  20.5104083  17.0900113  34.3812753  19.7344083
  16.9450113  34.5372753  18.8884083  17.9560113  34.4602753  19.8124083
  17.1970113  34.4162753  19.6214083  21.2570113  26.7782753  19.4624083
  21.3570113  26.9172753  18.6074083  22.0750113  26.7182753  19.7584083
  21.3920113  26.7892753  19.3794083  30.4170113  34.8422753  16.9424083
  31.0540113  34.7082753  17.5234083  30.0760113  34.0482753  16.8254083
  30.4610113  34.7052753  17.0104083  26.4920113  31.1072753  19.2644083
  26.2410113  30.9792753  20.0904083  26.1750113  30.4122753  18.8434083
  26.4080113  30.9862753  19.3244083  31.2370113  21.8242753  34.4134083
  31.0410113  22.4682753  34.9684083  30.5150113  21.3342753  34.4054083
  31.1020113  21.8472753  34.4944083  31.1360113  22.7652753  27.3844083
  30.3030113  23.0152753  27.3124083  31.0800113  21.9252753  27.6134083
  31.0050113  22.6782753  27.4074083  20.3960113  19.7532753  32.5784083
  20.6300113  19.1772753  31.9654083  19.5540113  19.5722753  32.7194083
  20.3060113  19.6412753  32.5084083  17.7770113  33.1962753  26.2114083
  17.6980113  32.3862753  25.8954083  17.3330113  33.6832753  25.6394083
  17.7000113  33.1482753  26.0804083  23.3780113  29.3152753  18.6944083
  24.0950113  28.9682753  18.3384083  23.3440113  30.1152753  18.3464083
  23.4790113  29.3822753  18.5904083  15.3490113  35.4402753  29.7924083
  15.8420113  35.3842753  30.5104083  15.5370113  34.7072753  29.3574083
  15.4500113  35.3232753  29.8344083  24.7870113  17.9562753   2.9331673
  24.5420113  18.4442753   2.2531673  25.6500113  17.8832753   2.8331673
  24.8780113  18.0172753   2.8181673  24.5960113  24.8722753   7.6041673
  24.0720113  25.4682753   7.9671673  24.9930113  24.5042753   8.2881673
  24.5770113  24.9062753   7.7591673  14.4650113  29.0122753   3.0601673
  14.0240113  29.1302753   3.8031673  14.1820113  28.2372753   2.7751673
  14.3580113  28.9152753   3.1281673  27.2670113  25.9392753   4.2801673
  27.3470113  25.9432753   3.4111673  26.6830113  25.3072753   4.4291673
  27.1920113  25.8462753   4.1741673  16.9740113  29.7082753   2.1391673
  17.5820113  29.5382753   2.7421673  16.2230113  29.5682753   2.5601673
  16.9530113  29.6622753   2.2901673  21.2560113  19.0432753   2.0881673
  21.1860113  19.7202753   1.5421673  21.9970113  18.6552753   1.8391673
  21.3550113  19.0862753   1.9701673  14.4050113  31.7472753   9.3151673
  14.5340113  31.4672753  10.1311673  13.7950113  31.2062753   9.0061673
  14.3340113  31.6262753   9.3901673  20.9790113  29.2722753  14.3821673
  20.7430113  29.2692753  15.2221673  20.2310113  29.1242753  13.9581673
  20.8330113  29.2492753  14.4431673  15.8510113  26.2682753   3.5171673
  15.3890113  25.8762753   2.8901673  16.5510113  25.7552753   3.6091673
  15.8860113  26.1352753   3.4381673  20.3590113  21.8782753   8.8641673
  21.0370113  21.8962753   8.3151673  20.3140113  21.0422753   9.1091673
  20.4520113  21.7572753   8.8191673  20.9610113  32.4642753  11.6451673
  21.0990113  33.2242753  11.2381673  21.7520113  32.0992753  11.6721673
  21.0980113  32.5232753  11.5891673  17.8520113  24.3682753   3.5401673
  18.6690113  24.1812753   3.7831673  17.3750113  23.7542753   3.9361673
  17.9020113  24.2502753   3.6351673  22.0560113  30.3492753   6.1501673
  22.4040113  29.5502753   6.1801673  22.7210113  30.8532753   5.8951673
  22.2060113  30.3052753   6.1171673  22.1130113  29.7982753   2.3611673
  22.4440113  29.1542753   2.8471673  22.3530113  29.5872753   1.5501673
  22.1970113  29.6722753   2.3131673  24.0810113  23.9292753  13.7001673
  23.2330113  23.8302753  13.5221673  24.1100113  24.6742753  14.1541673
  23.9600113  24.0252753  13.7411673  18.4490113  19.4622753   2.8061673
  18.1530113  19.9632753   2.1561673  19.3160113  19.5402753   2.7491673
  18.5330113  19.5482753   2.7021673  28.6390113  16.8892753  12.8141673
  28.4810113  17.6582753  12.4321673  27.8670113  16.6692753  13.1581673
  28.5010113  16.9702753  12.8091673  21.4280113  18.6042753   5.0291673
  21.5010113  19.4642753   5.1581673  21.3900113  18.5292753   4.1611673
  21.4330113  18.7202753   4.9201673  14.3070113  24.0292753   6.5301673
  14.0510113  24.8602753   6.4551673  13.6430113  23.6462753   6.9471673
  14.1710113  24.0952753   6.5811673  14.2170113  33.7392753   4.4301673
  13.6250113  34.2972753   4.1171673  14.6430113  33.4702753   3.7181673
  14.1930113  33.7812753   4.2791673  20.0570113  31.5832753   1.9101673
  19.4780113  31.3082753   2.5021673  20.6810113  30.9742753   1.9351673
  20.0640113  31.4532753   2.0011673  17.3360113  18.8462753   7.0211673
  16.8150113  18.2182753   6.7131673  17.9270113  18.4092753   7.4921673
  17.3470113  18.6882753   7.0451673  20.6420113  20.9792753  16.3191673
  20.7590113  20.5252753  15.5831673  20.9300113  21.7772753  16.1161673
  20.7020113  21.0302753  16.1801673  15.7620113  32.4092753   2.3611673
  16.4180113  31.8342753   2.3761673  16.1510113  33.1582753   2.1401673
  15.9170113  32.4342753   2.3311673  31.4950113  21.5032753   3.6231673
  31.1490113  22.1812753   4.0491673  30.8590113  20.9052753   3.6391673
  31.3500113  21.5152753   3.6881673  26.8070113  34.2732753   9.7271673
  27.5510113  34.7292753   9.7171673  26.6860113  34.0592753   8.8901673
  26.8990113  34.3092753   9.6021673  16.3750113  20.5762753  15.3031673
  15.5970113  20.1862753  15.2311673  16.8660113  20.1642753  14.7121673
  16.3320113  20.4572753  15.2051673  16.5800113  30.8962753   5.8611673
  17.0030113  30.5402753   5.1871673  16.9040113  30.4742753   6.5531673
  16.6900113  30.7812753   5.8641673  19.8110113  33.7482753   5.1571673
  20.6550113  33.8522753   4.9621673  19.5140113  34.5662753   5.2251673
  19.8920113  33.8842753   5.1381673  23.0240113  18.2192753  14.4711673
  23.2020113  17.4102753  14.1961673  22.8810113  18.6602753  13.7321673
  23.0290113  18.1652753  14.3211673  23.6180113  23.1452753   3.2441673
  23.9050113  22.9132753   2.4541673  24.3500113  23.2242753   3.7131673
  23.7680113  23.1222753   3.1971673  18.8090113  34.9672753  10.8971673
  19.1010113  34.9002753  11.7171673  18.1830113  34.3622753  10.8521673
  18.7600113  34.8682753  11.0121673  31.1700113  19.8262753   8.9921673
  31.9270113  19.8982753   8.5641673  31.2330113  19.0532753   9.3911673
  31.2910113  19.7232753   8.9871673  13.7230113  21.1242753  12.8891673
  13.7190113  21.7112753  13.5351673  14.3170113  21.4362753  12.3321673
  13.8100113  21.2572753  12.9021673  26.0610113  31.4582753  13.4311673
  26.0270113  31.8402753  14.2151673  26.9150113  31.4162753  13.2601673
  26.1820113  31.5082753  13.5221673  14.6600113  20.7192753   1.8041673
  14.5460113  19.8552753   1.8351673  14.1850113  21.0132753   2.4741673
  14.5730113  20.6352753   1.9071673  16.8020113  33.1292753  10.0191673
  16.1040113  32.6212753  10.1451673  17.0620113  32.9242753   9.2111673
  16.7370113  33.0242753   9.9181673  24.5130113  34.6222753  10.9291673
  25.2810113  34.5422753  10.5231673  23.9300113  34.5012753  10.2911673
  24.5400113  34.5922753  10.7751673  30.7900113  35.2252753   3.8301673
  30.3350113  35.9422753   4.0311673  30.1760113  34.6542753   3.5881673
  30.6320113  35.2472753   3.8241673  22.5620113  21.2352753   4.9621673
  22.6360113  21.8032753   4.3041673  22.6830113  21.7272753   5.6721673
  22.5900113  21.3922753   4.9701673  27.7870113  31.0702753   3.3741673
  28.4880113  30.5882753   3.5631673  27.1270113  30.5012753   3.4191673
  27.7930113  30.9152753   3.4081673  18.1630113  31.9802753  12.5861673
  19.0040113  32.0432753  12.3641673  18.1260113  32.3772753  13.3621673
  18.2820113  32.0482753  12.6681673  17.1700113  17.0582753   3.3101673
  17.7060113  17.7462753   3.3001673  17.1730113  16.7842753   2.4821673
  17.2490113  17.1192753   3.1861673  20.1260113  27.4912753   7.3351673
  20.2980113  27.2812753   8.1641673  19.4710113  26.9572753   7.1191673
  20.0550113  27.3812753   7.4261673  26.3540113  21.4052753  10.8501673
  26.2590113  21.7242753  11.6561673  25.7610113  20.7662753  10.8121673
  26.2520113  21.3572753  10.9641673  20.8760113  27.4292753   9.9251673
  20.9290113  28.2762753  10.1271673  20.5910113  27.0592753  10.6621673
  20.8420113  27.4992753  10.0631673  27.0530113  28.1242753   9.0551673
  26.5390113  27.7122753   9.6261673  26.9270113  28.9682753   9.2361673
  26.9590113  28.1882753   9.1661673  27.6100113  17.3492753   3.6861673
  27.6590113  17.0312753   4.4971673  27.9330113  16.7052753   3.1931673
  27.6650113  17.2072753   3.7331673  13.6970113  31.8002753  16.1361673
  14.4530113  32.1492753  16.3941673  13.8740113  30.9472753  16.0791673
  13.8350113  31.7252753  16.1661673  30.0740113  21.5852753  11.9941673
  30.8460113  21.3602753  12.3311673  29.5990113  21.8022753  12.6941673
  30.1180113  21.5842753  12.1471673  17.6180113  20.8682753   4.9641673
  17.8900113  20.4382753   4.2561673  17.4420113  20.2322753   5.5351673
  17.6320113  20.7112753   4.9441673  17.4420113  28.2952753   4.5131673
  18.2930113  28.2152753   4.3401673  17.0850113  27.6132753   4.1011673
  17.5150113  28.1822753   4.4261673  16.2090113  35.0202753   5.7501673
  15.5360113  34.5222753   5.5051673  16.6120113  35.2052753   4.9991673
  16.1690113  34.9742753   5.6031673  15.7590113  21.9702753   8.0461673
  16.6020113  22.1902753   8.0031673  15.3700113  22.5432753   7.5151673
  15.8260113  22.0872753   7.9611673  32.5400113  33.0722753  13.4361673
  31.8580113  33.3822753  12.9891673  32.1710113  32.6142753  14.0811673
  32.3840113  33.0502753  13.4651673  19.8100113  28.3022753   2.7481673
  20.5230113  28.7972753   2.8381673  20.0320113  27.7352753   2.1221673
  19.9480113  28.2912753   2.6691673  13.9660113  29.9452753   6.0681673
  13.2990113  30.4332753   6.3441673  14.6460113  30.4902753   6.0971673
  13.9680113  30.0972753   6.1131673  21.6130113  23.6552753  16.1641673
  21.1290113  24.2322753  16.6061673  21.5850113  23.9502753  15.3431673
  21.5370113  23.7842753  16.1081673  32.7110113  24.3392753  10.7761673
  32.9260113  23.5392753  10.5001673  31.8610113  24.3992753  10.5871673
  32.6170113  24.2302753  10.7071673  24.3330113  32.0052753   5.0751673
  23.8100113  32.6392753   4.7821673  24.6430113  31.6412753   4.3461673
  24.3010113  32.0452753   4.9241673  18.4080113  29.7932753   7.8351673
  18.8750113  30.0822753   8.5131673  18.9800113  29.3152753   7.3811673
  18.5620113  29.7652753   7.8681673  26.8440113  21.8072753   5.5721673
  27.1880113  21.9592753   6.3591673  26.3910113  21.0692753   5.6851673
  26.8280113  21.7202753   5.7051673  14.9740113  27.4632753   6.3791673
  15.4050113  27.3342753   5.6321673  14.7690113  28.3112753   6.3531673
  15.0070113  27.5692753   6.2651673  30.3740113  33.4542753  11.5261673
  29.7030113  33.9682753  11.7441673  30.4370113  33.5542753  10.6621673
  30.2840113  33.5452753  11.4311673  19.0580113  30.9792753   4.6611673
  19.1840113  31.8222753   4.8481673  19.7260113  30.5802753   5.0571673
  19.1760113  31.0452753   4.7471673  17.1880113  24.4622753  14.5231673
  16.6520113  23.9562753  14.9911673  17.2080113  24.0722753  13.7431673
  17.1110113  24.3292753  14.4771673  17.8400113  25.6892753   6.2621673
  17.0590113  25.6302753   5.8791673  17.9120113  24.9372753   6.6991673
  17.7350113  25.5702753   6.2701673  18.2700113  25.4262753   9.7301673
  18.2950113  24.7512753   9.1791673  17.6240113  25.9222753   9.4181673
  18.1790113  25.3992753   9.6031673  28.1650113  23.1392753   8.1261673
  27.5030113  23.4672753   8.5891673  28.3520113  23.7732753   7.5571673
  28.0950113  23.2812753   8.1101673  22.3700113  34.2032753   9.1221673
  22.0930113  33.5622753   8.5991673  22.1620113  34.9292753   8.6841673
  22.2990113  34.2162753   8.9801673  24.8100113  19.0452753  11.5551673
  24.9590113  18.2202753  11.3121673  25.1890113  19.1002753  12.3391673
  24.8880113  18.9312753  11.6351673  16.0690113  26.7812753  15.2891673
  16.0320113  27.2822753  14.5751673  16.4000113  26.0292753  14.9941673
  16.1120113  26.7432753  15.1401673  27.6720113  28.9862753  13.5471673
  28.1560113  29.7042753  13.6451673  28.0660113  28.5592753  12.8961673
  27.8020113  29.0292753  13.4651673  21.9680113  31.8312753  14.7241673
  22.3220113  31.6532753  15.5011673  21.5320113  31.1022753  14.5251673
  21.9560113  31.6972753  14.8101673  22.9400113  22.5782753   7.3621673
  23.4200113  23.2772753   7.5701673  23.3130113  21.9312753   7.8131673
  23.0660113  22.5862753   7.4591673  30.1010113  29.6172753   3.6171673
  30.4570113  29.2672753   4.3321673  30.0930113  28.9562753   3.0471673
  30.1530113  29.4672753   3.6381673  26.1460113  32.6832753   7.4611673
  25.5430113  32.3872753   6.9041673  26.6910113  33.1352753   6.9521673
  26.1370113  32.7062753   7.3031673  26.1590113  29.5342753   6.8611673
  25.3620113  29.7582753   7.1351673  26.4170113  28.9402753   7.4461673
  26.0790113  29.4792753   6.9881673  29.4190113  27.5322753  11.7071673
  29.4740113  27.6572753  10.8451673  30.1720113  27.8522753  12.0091673
  29.5380113  27.5972753  11.6241673  30.4510113  17.8302753  14.6941673
  29.8140113  17.4302753  14.2521673  30.4770113  17.3992753  15.4521673
  30.3610113  17.7082753  14.7401673  25.1500113  27.3382753  11.3071673
  24.9950113  27.9482753  11.9111673  25.6840113  26.7802753  11.7131673
  25.2060113  27.3462753  11.4561673  23.5340113  25.7382753   1.9651673
  23.5930113  26.3882753   2.5441673  23.3450113  25.0422753   2.4561673
  23.5150113  25.7312753   2.1231673  28.7600113  30.0672753   7.8341673
  28.2810113  30.3652753   7.1681673  28.4040113  29.2912753   8.0121673
  28.6370113  29.9962753   7.7621673  22.7570113  27.7852753   6.3961673
  21.9100113  27.5912753   6.4771673  23.0810113  27.6202753   7.1891673
  22.6790113  27.7322753   6.5251673  16.6050113  27.4782753   8.7121673
  17.3270113  27.9662753   8.6751673  16.3350113  27.4482753   7.8831673
  16.6720113  27.5462753   8.5841673  19.8350113  22.6492753   5.4471673
  20.6810113  22.4592753   5.5451673  19.4650113  21.8722753   5.3091673
  19.9050113  22.5062753   5.4411673  29.6910113  27.0092753   8.9531673
  29.6840113  26.2332753   9.3511673  28.8500113  27.2432753   8.9461673
  29.5660113  26.9292753   9.0111673  16.0000113  28.5302753  12.9901673
  15.5790113  28.0122753  12.4291673  15.6480113  29.3162753  12.8471673
  15.8860113  28.5702753  12.8861673  30.9470113  27.0802753   6.3901673
  30.6610113  27.4812753   7.1101673  31.8070113  27.0182753   6.5171673
  31.0320113  27.1302753   6.5151673  28.6090113  21.0042753  14.9301673
  28.0840113  21.4632753  15.4541673  28.2480113  20.2092753  14.9241673
  28.4780113  20.9542753  15.0061673  14.1160113  19.8522753   6.8341673
  14.1600113  20.1962753   6.0331673  14.8710113  20.0892753   7.2011673
  14.2340113  19.9382753   6.7701673  32.0780113  32.7132753   6.9191673
  32.3680113  32.9702753   6.1381673  32.7730113  32.8092753   7.4381673
  32.2240113  32.7652753   6.8801673  27.1010113  24.5732753  15.0061673
  27.1740113  24.6772753  15.8691673  26.4670113  25.1312753  14.7851673
  27.0180113  24.6712753  15.1011673  29.3690113  24.8922753  13.3711673
  29.6880113  25.6782753  13.5741673  28.9990113  24.6222753  14.1141673
  29.3620113  24.9682753  13.5111673  29.1650113  23.1502753   4.5601673
  28.4200113  22.8272753   4.8781673  29.1670113  23.9762753   4.8401673
  29.0550113  23.2242753   4.6481673  32.0670113  25.4342753  16.1061673
  32.0150113  25.0932753  15.3051673  32.8040113  25.9012753  16.0841673
  32.1680113  25.4532753  15.9841673  31.6050113  29.1102753  12.3121673
  32.2330113  28.5612753  12.0561673  31.5440113  29.6752753  11.6501673
  31.6890113  29.1132753  12.1761673  20.7390113  30.3412753   9.6081673
  20.4410113  30.9332753  10.1751673  20.7940113  30.7832753   8.8591673
  20.7030113  30.4942753   9.5811673  18.7180113  29.2912753  13.0061673
  17.9120113  29.0012753  13.1731673  18.6290113  30.1592753  13.0121673
  18.5860113  29.3762753  13.0311673  28.0770113  19.4802753  12.0211673
  28.8210113  19.9322753  11.9581673  27.5110113  19.9502753  11.5521673
  28.1040113  19.6172753  11.9431673  23.2550113  26.7642753   9.0991673
  23.7310113  27.1382753   9.7271673  22.4320113  26.8982753   9.3581673
  23.2040113  26.8392753   9.2301673  19.9650113  22.3672753  11.8401673
  20.1260113  21.6232753  12.2671673  19.9200113  22.1182753  11.0051673
  19.9820113  22.2202753  11.7801673  22.5190113  34.1572753   4.3271673
  23.0650113  34.8362753   4.3811673  22.1690113  34.2392753   3.5321673
  22.5480113  34.2702753   4.2171673  29.3620113  17.4602753   9.6911673
  29.0820113  18.2852753   9.6471673  30.0780113  17.5132753  10.1871673
  29.4270113  17.5902753   9.7581673  21.7170113  18.1752753  11.7201673
  22.4220113  18.4952753  11.3181673  21.9580113  17.3682753  11.9471673
  21.8560113  18.1032753  11.6941673  20.7020113  32.3852753   7.7161673
  20.0780113  32.9672753   7.5341673  20.9500113  32.0992753   6.9301673
  20.6460113  32.4292753   7.5731673  25.0110113  29.0192753  14.7051673
  25.7680113  29.3052753  14.3791673  24.4640113  29.0712753  14.0271673
  25.0420113  29.0692753  14.5561673  28.9200113  31.5692753  13.2091673
  29.2660113  31.8392753  13.9631673  29.2140113  32.1512753  12.6291673
  29.0150113  31.6952753  13.2351673  18.2260113  23.2282753   7.7811673
  18.6660113  23.1252753   7.0351673  18.7710113  22.9152753   8.3861673
  18.3710113  23.1672753   7.7601673  26.2420113  22.3302753  13.3731673
  25.5940113  22.8002753  13.7211673  26.8070113  22.2412753  14.0321673
  26.2300113  22.3862753  13.5221673  25.9300113  23.8672753   9.6711673
  26.2320113  24.2872753  10.3741673  25.9660113  23.0272753   9.9031673
  25.9800113  23.8052753   9.8091673  23.3550113  34.0342753  13.5961673
  23.8330113  33.4342753  13.1801673  23.0040113  33.5912753  14.2611673
  23.3740113  33.8802753  13.6331673  28.4780113  23.3142753   1.9231673
  28.6850113  23.1132753   2.7471673  29.2340113  23.5822753   1.5811673
  28.6200113  23.3242753   1.9941673  21.7730113  18.2132753   7.8281673
  20.9470113  18.0642753   8.0651673  21.7330113  18.2482753   6.9571673
  21.6450113  18.1962753   7.7341673  29.5000113  19.3972753   3.3971673
  28.7860113  18.9262753   3.5681673  29.3380113  19.7382753   2.6111673
  29.3710113  19.3782753   3.3061673  29.9430113  27.3412753   1.7771673
  30.4190113  26.6122753   1.7291673  29.1220113  27.0552753   1.7011673
  29.8920113  27.1912753   1.7581673  23.4140113  29.2532753  12.6161673
  22.6190113  29.1892753  12.9671673  23.4850113  30.1002753  12.4211673
  23.3070113  29.3682753  12.6391673  14.3380113  18.6112753  13.8631673
  14.1980113  19.4062753  13.5321673  13.5520113  18.3682753  14.1521673
  14.2010113  18.6932753  13.8571673  19.2440113  35.4602753   7.9331673
  19.2550113  35.5192753   8.8031673  18.8190113  34.7132753   7.7831673
  19.1830113  35.3582753   8.0391673  26.1590113  28.5082753   4.1321673
  26.2350113  28.8492753   4.9311673  26.3280113  27.6612753   4.2531673
  26.1950113  28.4332753   4.2681673  23.6810113  27.7822753   3.6971673
  23.3830113  27.4672753   4.4541673  24.3760113  28.2552753   3.9321673
  23.7400113  27.8052753   3.8441673  23.9030113  31.9002753  11.7241673
  24.5900113  31.7862753  12.2491673  24.0370113  32.6912753  11.3801673
  24.0240113  32.0002753  11.7511673  32.0790113  24.5092753  13.5351673
  31.2240113  24.3872753  13.6611673  32.2320113  24.1142753  12.7721673
  31.9750113  24.4322753  13.4411673  26.5920113  25.1742753  12.1111673
  26.3370113  24.4552753  12.5331673  27.4130113  25.2902753  12.3811673
  26.6760113  25.0852753  12.2131673  16.0080113  34.9582753  13.3751673
  15.3540113  34.3892753  13.4731673  15.6330113  35.7312753  13.5261673
  15.8560113  34.9882753  13.4121673  24.5260113  26.3642753  15.2981673
  24.8490113  27.0502753  14.8661673  23.8220113  26.6872753  15.7001673
  24.4690113  26.5132753  15.2931673  27.6100113  34.7382753   6.2271673
  27.1590113  35.3812753   6.6061673  28.3180113  34.6592753   6.7321673
  27.6480113  34.8212753   6.3581673  24.3110113  29.8282753   9.1571673
  23.6170113  30.2302753   9.5001673  24.9880113  30.2612753   9.4961673
  24.3080113  29.9512753   9.2581673  29.6880113  32.4212753  15.7371673
  30.4640113  32.0312753  15.8201673  29.2190113  32.0852753  16.3921673
  29.7330113  32.3142753  15.8461673  17.3790113  23.3662753  11.5041673
  17.7540113  23.9852753  11.0171673  18.0530113  22.8922753  11.7891673
  17.5340113  23.3882753  11.4741673  15.1540113  21.8142753  10.7791673
  15.2310113  21.6452753   9.9261673  15.9000113  22.2202753  10.9761673
  15.2750113  21.8492753  10.6821673  17.7080113  19.2242753  13.1901673
  17.6270113  18.3802753  13.3961673  17.3940113  19.2682753  12.3771673
  17.6500113  19.1062753  13.1001673  24.6330113  31.4192753   2.3261673
  24.4280113  32.2522753   2.1671673  23.8580113  31.0372753   2.4481673
  24.4880113  31.4862753   2.3211673  29.8150113  24.6002753  10.5751673
  29.8130113  23.7372753  10.6991673  29.8820113  24.9242753  11.3821673
  29.8250113  24.5202753  10.7121673  14.5510113  27.0402753  11.0031673
  14.8710113  27.2592753  10.2221673  14.4510113  26.1752753  10.9481673
  14.5830113  26.9452753  10.8801673  25.6940113  19.4002753  14.3571673
  25.7860113  20.1122753  14.8511673  25.0570113  18.9552753  14.7541673
  25.6130113  19.4392753  14.4891673  24.6880113  19.5902753   5.2111673
  23.9880113  20.1082753   5.1551673  24.7260113  19.2102753   4.4271673
  24.5900113  19.6112753   5.0871673  28.2860113  20.1062753   8.0111673
  29.1410113  20.2052753   8.1561673  27.9170113  20.6592753   8.5761673
  28.3580113  20.2032753   8.1161673  19.3140113  26.3322753  12.3881673
  18.9180113  27.1062753  12.4631673  18.9080113  25.9592753  11.7121673
  19.1960113  26.3912753  12.2991673  28.5900113  25.3862753   6.5021673
  29.2560113  25.9272753   6.6621673  28.2450113  25.6972753   5.7631673
  28.6370113  25.5122753   6.4171673  28.9030113  33.4522753   2.3091673
  28.7290113  32.7982753   2.8591673  29.6160113  33.1812753   1.8861673
  28.9830113  33.3152753   2.3281673  19.7430113  19.3092753   9.8381673
  18.8790113  19.3932753   9.9181673  19.9630113  18.7952753  10.5071673
  19.6480113  19.2462753   9.9491673  31.7610113  17.9442753  11.1671673
  31.7090113  17.9002753  12.0371673  32.4480113  17.4412753  10.9771673
  31.8550113  17.8642753  11.2671673  23.8460113  20.0572753   8.2121673
  23.1090113  19.6032753   8.3251673  24.4170113  19.6552753   8.7351673
  23.8210113  19.9302753   8.3061673  26.5780113  30.9052753  10.0001673
  26.7840113  31.2062753  10.7921673  26.5170113  31.6272753   9.5151673
  26.5990113  31.0562753  10.0451673  26.1120113  35.1192753  14.2461673
  25.3590113  35.1012753  13.8051673  26.2800113  35.9712753  14.3301673
  26.0260113  35.2422753  14.1931673  21.3490113  24.3862753  13.4161673
  21.0270113  23.8102753  12.8461673  20.9900113  25.1412753  13.1701673
  21.2490113  24.4122753  13.2961673  31.3900113  29.5442753   9.4581673
  31.3580113  28.6822753   9.3231673  30.6970113  29.8462753   9.0241673
  31.2830113  29.4612753   9.3741673  19.7840113  34.7422753  13.6641673
  19.8250113  34.8682753  14.5271673  20.4350113  34.1822753  13.5081673
  19.8860113  34.6782753  13.7691673  29.4950113  32.8042753   8.2551673
  30.0220113  32.7212753   7.5641673  29.1040113  32.0262753   8.3091673
  29.5150113  32.6772753   8.1611673  16.9630113  19.3922753  10.4861673
  16.6200113  18.6252753  10.2521673  16.2680113  19.9162753  10.5501673
  16.8100113  19.3562753  10.4611673  26.0090113  18.2482753   7.4631673
  26.6790113  18.7922753   7.5901673  25.5060113  18.6722753   6.8901673
  26.0340113  18.3912753   7.3971673  17.3770113  33.1252753  15.0241673
  17.9720113  33.5562753  15.4961673  17.0130113  33.7492753  14.5351673
  17.4110113  33.2812753  15.0211673  25.3680113  24.0562753   4.9561673
  25.9190113  23.4492753   5.2561673  24.9430113  24.3192753   5.6711673
  25.3870113  24.0052753   5.1051673  15.6160113  22.7062753   4.4421673
  15.2480113  23.0082753   5.1731673  16.1500113  22.0772753   4.7261673
  15.6400113  22.6582753   4.5921673  15.3040113  31.1142753  11.9531673
  14.7300113  31.5302753  12.4621673  16.0370113  31.5792753  12.0481673
  15.3280113  31.2442753  12.0421673  30.6120113  27.2602753  14.6691673
  31.2460113  27.0902753  15.2431673  31.0290113  27.6632753  14.0171673
  30.7670113  27.2952753  14.6581673  31.2370113  21.8242753  15.4071673
  31.0410113  22.4682753  15.9621673  30.5150113  21.3342753  15.3991673
  31.1020113  21.8472753  15.4881673  31.1360113  22.7652753   8.3781673
  30.3030113  23.0152753   8.3061673  31.0800113  21.9252753   8.6071673
  31.0050113  22.6782753   8.4011673  20.3960113  19.7532753  13.5721673
  20.6300113  19.1772753  12.9591673  19.5540113  19.5722753  13.7131673
  20.3060113  19.6412753  13.5021673  28.0230113  27.3712753  16.0241673
  28.8940113  27.3352753  15.9881673  27.8040113  27.7912753  15.2921673
  28.1200113  27.4272753  15.9111673  17.7770113  33.1962753   7.2051673
  17.6980113  32.3862753   6.8891673  17.3330113  33.6832753   6.6331673
  17.7000113  33.1482753   7.0741673  15.3490113  35.4402753  10.7861673
  15.8420113  35.3842753  11.5041673  15.5370113  34.7072753  10.3511673
  15.4500113  35.3232753  10.8281673  24.5960113   6.3941673  83.6291313
  24.0720113   6.9901673  83.9921313  24.9930113   6.0261673  84.3131313
  24.5770113   6.4281673  83.7841313  14.4650113  10.5341673  79.0851313
  14.0240113  10.6521673  79.8281313  14.1820113   9.7591673  78.8001313
  14.3580113  10.4371673  79.1531313  30.7400113  13.8351673  76.6001313
  31.4410113  13.3161673  76.5961313  30.1530113  13.3901673  76.1311313
  30.7570113  13.6921673  76.5301313  14.2080113   4.3261673  75.5921313
  13.4300113   4.4881673  75.2321313  14.2470113   3.4551673  75.6141313
  14.0990113   4.2211673  75.5421313  17.3470113   9.5891673  74.2641313
  16.9550113   9.2181673  73.5781313  17.2670113   8.9911673  74.8931313
  17.2770113   9.4461673  74.2551313  27.2670113   7.4611673  80.3051313
  27.3470113   7.4651673  79.4361313  26.6830113   6.8291673  80.4541313
  27.1920113   7.3681673  80.1991313  16.9740113  11.2301673  78.1641313
  17.5820113  11.0601673  78.7671313  16.2230113  11.0901673  78.5851313
  16.9530113  11.1841673  78.3151313  15.8650113  14.3211673  74.2411313
  16.3320113  14.4051673  73.5091313  16.3200113  13.7431673  74.7101313
  16.0010113  14.2481673  74.2021313  14.4050113  13.2691673  85.3401313
  14.5340113  12.9891673  86.1561313  13.7950113  12.7281673  85.0311313
  14.3340113  13.1481673  85.4151313  15.8510113   7.7901673  79.5421313
  15.3890113   7.3981673  78.9151313  16.5510113   7.2771673  79.6341313
  15.8860113   7.6571673  79.4631313  20.3590113   3.4001673  84.8891313
  21.0370113   3.4181673  84.3401313  20.3140113   2.5641673  85.1341313
  20.4520113   3.2791673  84.8441313  20.9610113  13.9861673  87.6701313
  21.0990113  14.7461673  87.2631313  21.7520113  13.6211673  87.6971313
  21.0980113  14.0451673  87.6141313  17.8520113   5.8901673  79.5651313
  18.6690113   5.7031673  79.8081313  17.3750113   5.2761673  79.9611313
  17.9020113   5.7721673  79.6601313  22.0560113  11.8711673  82.1751313
  22.4040113  11.0721673  82.2051313  22.7210113  12.3751673  81.9201313
  22.2060113  11.8271673  82.1421313  22.1130113  11.3201673  78.3861313
  22.4440113  10.6761673  78.8721313  22.3530113  11.1091673  77.5751313
  22.1970113  11.1941673  78.3381313  26.1010113   3.0521673  73.3531313
  25.6510113   3.7331673  73.6601313  26.2150113   2.5481673  74.0561313
  26.0520113   3.0781673  73.5021313  14.3070113   5.5511673  82.5551313
  14.0510113   6.3821673  82.4801313  13.6430113   5.1681673  82.9721313
  14.1710113   5.6171673  82.6061313  14.2170113  15.2611673  80.4551313
  13.6250113  15.8191673  80.1421313  14.6430113  14.9921673  79.7431313
  14.1930113  15.3031673  80.3041313  20.0570113  13.1051673  77.9351313
  19.4780113  12.8301673  78.5271313  20.6810113  12.4961673  77.9601313
  20.0640113  12.9751673  78.0261313  26.2000113  15.3931673  75.4571313
  26.9270113  15.8651673  75.5591313  26.4290113  14.5991673  75.7371313
  26.3420113  15.3461673  75.5141313  24.3680113  15.7851673  77.4471313
  24.5820113  16.3121673  78.1091313  25.1350113  15.6111673  77.0681313
  24.5130113  15.8371673  77.4891313  15.7620113  13.9311673  78.3861313
  16.4180113  13.3561673  78.4011313  16.1510113  14.6801673  78.1651313
  15.9170113  13.9561673  78.3561313  31.4950113   3.0251673  79.6481313
  31.1490113   3.7031673  80.0741313  30.8590113   2.4271673  79.6641313
  31.3500113   3.0371673  79.7131313  26.8070113  15.7951673  85.7521313
  27.5510113  16.2511673  85.7421313  26.6860113  15.5811673  84.9151313
  26.8990113  15.8311673  85.6271313  16.5800113  12.4181673  81.8861313
  17.0030113  12.0621673  81.2121313  16.9040113  11.9961673  82.5781313
  16.6900113  12.3031673  81.8891313  19.8110113  15.2701673  81.1821313
  20.6550113  15.3741673  80.9871313  19.5140113  16.0881673  81.2501313
  19.8920113  15.4061673  81.1631313  23.6180113   4.6671673  79.2691313
  23.9050113   4.4351673  78.4791313  24.3500113   4.7461673  79.7381313
  23.7680113   4.6441673  79.2221313  24.3400113   5.0061673  74.3901313
  24.6210113   5.7941673  74.6391313  23.5640113   5.1711673  74.0271313
  24.2670113   5.1471673  74.3731313  28.3810113  16.9801673  75.8571313
  29.0460113  16.8321673  75.3121313  28.7410113  16.8971673  76.6471313
  28.5330113  16.9461673  75.8931313  18.8090113  16.4891673  86.9221313
  19.1010113  16.4221673  87.7421313  18.1830113  15.8841673  86.8771313
  18.7600113  16.3901673  87.0371313  23.1990113  13.1771673  74.2061313
  23.0180113  13.7221673  74.8631313  23.9650113  13.4671673  73.9051313
  23.2850113  13.3011673  74.2591313  16.8020113  14.6511673  86.0441313
  16.1040113  14.1431673  86.1701313  17.0620113  14.4461673  85.2361313
  16.7370113  14.5461673  85.9431313  23.9640113   3.4491673  76.5741313
  23.4560113   2.7871673  76.3201313  24.0160113   3.9531673  75.8641313
  23.8970113   3.4261673  76.4321313  24.5130113  16.1441673  86.9541313
  25.2810113  16.0641673  86.5481313  23.9300113  16.0231673  86.3161313
  24.5400113  16.1141673  86.8001313  30.7900113  16.7471673  79.8551313
  30.3350113  17.4641673  80.0561313  30.1760113  16.1761673  79.6131313
  30.6320113  16.7691673  79.8491313  22.5620113   2.7571673  80.9871313
  22.6360113   3.3251673  80.3291313  22.6830113   3.2491673  81.6971313
  22.5900113   2.9141673  80.9951313  27.7870113  12.5921673  79.3991313
  28.4880113  12.1101673  79.5881313  27.1270113  12.0231673  79.4441313
  27.7930113  12.4371673  79.4331313  20.1260113   9.0131673  83.3601313
  20.2980113   8.8031673  84.1891313  19.4710113   8.4791673  83.1441313
  20.0550113   8.9031673  83.4511313  26.3540113   2.9271673  86.8751313
  26.2590113   3.2461673  87.6811313  25.7610113   2.2881673  86.8371313
  26.2520113   2.8791673  86.9891313  20.8760113   8.9511673  85.9501313
  20.9290113   9.7981673  86.1521313  20.5910113   8.5811673  86.6871313
  20.8420113   9.0211673  86.0881313  27.0530113   9.6461673  85.0801313
  26.5390113   9.2341673  85.6511313  26.9270113  10.4901673  85.2611313
  26.9590113   9.7101673  85.1911313  17.6180113   2.3901673  80.9891313
  17.8900113   1.9601673  80.2811313  17.4420113   1.7541673  81.5601313
  17.6320113   2.2331673  80.9691313  30.3060113  10.0851673  75.2071313
  30.4250113   9.7981673  76.0221313  31.1130113  10.1061673  74.8771313
  30.4420113  10.0461673  75.2791313  17.4420113   9.8171673  80.5381313
  18.2930113   9.7371673  80.3651313  17.0850113   9.1351673  80.1261313
  17.5150113   9.7041673  80.4511313  16.2090113  16.5421673  81.7751313
  15.5360113  16.0441673  81.5301313  16.6120113  16.7271673  81.0241313
  16.1690113  16.4961673  81.6281313  15.7590113   3.4921673  84.0711313
  16.6020113   3.7121673  84.0281313  15.3700113   4.0651673  83.5401313
  15.8260113   3.6091673  83.9861313  28.2010113   6.6221673  74.7921313
  27.9810113   7.3531673  74.3701313  27.7530113   6.6731673  75.5391313
  28.1020113   6.7371673  74.8401313  19.8100113   9.8241673  78.7731313
  20.5230113  10.3191673  78.8631313  20.0320113   9.2571673  78.1471313
  19.9480113   9.8131673  78.6941313  13.9660113  11.4671673  82.0931313
  13.2990113  11.9551673  82.3691313  14.6460113  12.0121673  82.1221313
  13.9680113  11.6191673  82.1381313  32.7110113   5.8611673  86.8011313
  32.9260113   5.0611673  86.5251313  31.8610113   5.9211673  86.6121313
  32.6170113   5.7521673  86.7321313  14.0320113   8.1511673  77.1961313
  13.8470113   7.3121673  77.3481313  14.6910113   8.1151673  76.6261313
  14.1020113   8.0221673  77.1341313  24.3330113  13.5271673  81.1001313
  23.8100113  14.1611673  80.8071313  24.6430113  13.1631673  80.3711313
  24.3010113  13.5671673  80.9491313  14.2040113  12.3151673  76.7711313
  14.7560113  12.8841673  77.1351313  13.9720113  11.8001673  77.4361313
  14.2510113  12.3231673  76.9231313  18.4080113  11.3151673  83.8601313
  18.8750113  11.6041673  84.5381313  18.9800113  10.8371673  83.4061313
  18.5620113  11.2871673  83.8931313  26.8440113   3.3291673  81.5971313
  27.1880113   3.4811673  82.3841313  26.3910113   2.5911673  81.7101313
  26.8280113   3.2421673  81.7301313  14.0340113  10.7641673  74.3991313
  14.7900113  10.3321673  74.4571313  14.0490113  11.2961673  75.0901313
  14.1480113  10.7791673  74.5101313  14.9740113   8.9851673  82.4041313
  15.4050113   8.8561673  81.6571313  14.7690113   9.8331673  82.3781313
  15.0070113   9.0911673  82.2901313  21.3200113   2.5491673  76.0541313
  21.3180113   2.4321673  75.1891313  21.1390113   3.3971673  76.1461313
  21.2930113   2.6571673  75.9401313  30.3740113  14.9761673  87.5511313
  29.7030113  15.4901673  87.7691313  30.4370113  15.0761673  86.6871313
  30.2840113  15.0671673  87.4561313  19.0580113  12.5011673  80.6861313
  19.1840113  13.3441673  80.8731313  19.7260113  12.1021673  81.0821313
  19.1760113  12.5671673  80.7721313  17.6730113   5.3811673  75.6881313
  17.5450113   4.9331673  76.4261313  17.0910113   5.0391673  75.1361313
  17.5680113   5.2641673  75.7161313  17.8400113   7.2111673  82.2871313
  17.0590113   7.1521673  81.9041313  17.9120113   6.4591673  82.7241313
  17.7350113   7.0921673  82.2951313  18.2700113   6.9481673  85.7551313
  18.2950113   6.2731673  85.2041313  17.6240113   7.4441673  85.4431313
  18.1790113   6.9211673  85.6281313  28.1650113   4.6611673  84.1511313
  27.5030113   4.9891673  84.6141313  28.3520113   5.2951673  83.5821313
  28.0950113   4.8031673  84.1351313  22.3700113  15.7251673  85.1471313
  22.0930113  15.0841673  84.6241313  22.1620113  16.4511673  84.7091313
  22.2990113  15.7381673  85.0051313  26.3580113   2.6301673  77.6621313
  26.8480113   3.3471673  77.5851313  25.5680113   2.8911673  77.3991313
  26.3140113   2.7741673  77.6121313  22.9400113   4.1001673  83.3871313
  23.4200113   4.7991673  83.5951313  23.3130113   3.4531673  83.8381313
  23.0660113   4.1081673  83.4841313  25.1290113   7.2691673  75.6611313
  25.1210113   7.9911673  75.1711313  24.4900113   7.4041673  76.2381313
  25.0340113   7.3961673  75.6741313  30.1010113  11.1391673  79.6421313
  30.4570113  10.7891673  80.3571313  30.0930113  10.4781673  79.0721313
  30.1530113  10.9891673  79.6631313  26.1460113  14.2051673  83.4861313
  25.5430113  13.9091673  82.9291313  26.6910113  14.6571673  82.9771313
  26.1370113  14.2281673  83.3281313  26.1590113  11.0561673  82.8861313
  25.3620113  11.2801673  83.1601313  26.4170113  10.4621673  83.4711313
  26.0790113  11.0011673  83.0131313  20.0510113  15.8681673  77.3341313
  19.9040113  15.0921673  77.7051313  20.7400113  15.7211673  76.8191313
  20.1310113  15.7311673  77.3131313  22.3430113  15.3841673  75.7361313
  22.9650113  15.5471673  76.3261313  22.3790113  16.0751673  75.2041313
  22.4400113  15.5101673  75.7451313  29.4190113   9.0541673  87.7321313
  29.4740113   9.1791673  86.8701313  30.1720113   9.3741673  88.0341313
  29.5380113   9.1191673  87.6491313  16.8440113   7.9181673  76.5651313
  17.1680113   7.1391673  76.3431313  17.4900113   8.2861673  77.0201313
  16.9870113   7.8571673  76.5991313  25.1500113   8.8601673  87.3321313
  24.9950113   9.4701673  87.9361313  25.6840113   8.3021673  87.7381313
  25.2060113   8.8681673  87.4811313  23.5340113   7.2601673  77.9901313
  23.5930113   7.9101673  78.5691313  23.3450113   6.5641673  78.4811313
  23.5150113   7.2531673  78.1481313  28.7600113  11.5891673  83.8591313
  28.2810113  11.8871673  83.1931313  28.4040113  10.8131673  84.0371313
  28.6370113  11.5181673  83.7871313  18.0300113   1.7771673  74.5021313
  17.5190113   1.8301673  73.7961313  18.8140113   2.0171673  74.2061313
  18.0700113   1.8201673  74.3541313  22.7570113   9.3071673  82.4211313
  21.9100113   9.1131673  82.5021313  23.0810113   9.1421673  83.2141313
  22.6790113   9.2541673  82.5501313  19.5090113  16.0371673  73.3071313
  19.9480113  15.3401673  73.5951313  19.7160113  16.6611673  73.8801313
  19.6050113  16.0261673  73.4341313  16.6050113   9.0001673  84.7371313
  17.3270113   9.4881673  84.7001313  16.3350113   8.9701673  83.9081313
  16.6720113   9.0681673  84.6091313  19.8350113   4.1711673  81.4721313
  20.6810113   3.9811673  81.5701313  19.4650113   3.3941673  81.3341313
  19.9050113   4.0281673  81.4661313  32.4520113  15.7551673  75.7991313
  33.1460113  15.2881673  75.5511313  31.9130113  15.1571673  76.1361313
  32.4750113  15.5971673  75.8121313  14.6560113   5.5091673  78.1271313
  15.1450113   5.2171673  78.7881313  14.7850113   4.9161673  77.5001313
  14.7470113   5.3781673  78.1321313  29.6910113   8.5311673  84.9781313
  29.6840113   7.7551673  85.3761313  28.8500113   8.7651673  84.9711313
  29.5660113   8.4511673  85.0361313  19.1810113   6.9431673  73.6131313
  18.5710113   6.5381673  74.0871313  18.7950113   7.0611673  72.8401313
  19.0340113   6.9001673  73.5691313  30.9470113   8.6021673  82.4151313
  30.6610113   9.0031673  83.1351313  31.8070113   8.5401673  82.5421313
  31.0320113   8.6521673  82.5401313  20.6360113   5.4041673  76.3231313
  20.9080113   6.2301673  76.3901313  19.7730113   5.4791673  76.2271313
  20.5490113   5.5371673  76.3181313  32.0780113  14.2351673  82.9441313
  32.3680113  14.4921673  82.1631313  32.7730113  14.3311673  83.4631313
  32.2240113  14.2871673  82.9051313  28.6830113  12.8381673  74.9261313
  29.0170113  12.0321673  74.9611313  27.9280113  12.7661673  75.3561313
  28.6210113  12.7081673  74.9951313  29.1650113   4.6721673  80.5851313
  28.4200113   4.3491673  80.9031313  29.1670113   5.4981673  80.8651313
  29.0550113   4.7461673  80.6731313  26.0570113  10.7131673  74.3291313
  26.7410113  10.1991673  74.1601313  25.6400113  10.7591673  73.5641313
  26.0960113  10.6441673  74.1911313  20.7390113  11.8631673  85.6331313
  20.4410113  12.4551673  86.2001313  20.7940113  12.3051673  84.8841313
  20.7030113  12.0161673  85.6061313  23.2550113   8.2861673  85.1241313
  23.7310113   8.6601673  85.7521313  22.4320113   8.4201673  85.3831313
  23.2040113   8.3611673  85.2551313  22.5190113  15.6791673  80.3521313
  23.0650113  16.3581673  80.4061313  22.1690113  15.7611673  79.5571313
  22.5480113  15.7921673  80.2421313  20.7020113  13.9071673  83.7411313
  20.0780113  14.4891673  83.5591313  20.9500113  13.6211673  82.9551313
  20.6460113  13.9511673  83.5981313  30.7830113   5.2371673  74.5731313
  31.1610113   5.9141673  74.1731313  29.9410113   5.4611673  74.6041313
  30.7140113   5.3701673  74.5181313  22.2960113   8.6831673  73.6561313
  21.4910113   8.5061673  73.3711313  22.2630113   9.5341673  73.8481313
  22.1720113   8.7821673  73.6431313  18.2260113   4.7501673  83.8061313
  18.6660113   4.6471673  83.0601313  18.7710113   4.4371673  84.4111313
  18.3710113   4.6891673  83.7851313  25.9300113   5.3891673  85.6961313
  26.2320113   5.8091673  86.3991313  25.9660113   4.5491673  85.9281313
  25.9800113   5.3271673  85.8341313  28.4780113   4.8361673  77.9481313
  28.6850113   4.6351673  78.7721313  29.2340113   5.1041673  77.6061313
  28.6200113   4.8461673  78.0191313  29.9430113   8.8631673  77.8021313
  30.4190113   8.1341673  77.7541313  29.1220113   8.5771673  77.7261313
  29.8920113   8.7131673  77.7831313  19.2440113  16.9821673  83.9581313
  19.2550113  17.0411673  84.8281313  18.8190113  16.2351673  83.8081313
  19.1830113  16.8801673  84.0641313  17.4020113   2.8771673  77.1131313
  17.5280113   2.5481673  76.3151313  16.5900113   2.6281673  77.3121313
  17.3010113   2.7921673  77.0251313  26.1590113  10.0301673  80.1571313
  26.2350113  10.3711673  80.9561313  26.3280113   9.1831673  80.2781313
  26.1950113   9.9551673  80.2931313  23.6810113   9.3041673  79.7221313
  23.3830113   8.9891673  80.4791313  24.3760113   9.7771673  79.9571313
  23.7400113   9.3271673  79.8691313  27.6100113  16.2601673  82.2521313
  27.1590113  16.9031673  82.6311313  28.3180113  16.1811673  82.7571313
  27.6480113  16.3431673  82.3831313  24.3110113  11.3501673  85.1821313
  23.6170113  11.7521673  85.5251313  24.9880113  11.7831673  85.5211313
  24.3080113  11.4731673  85.2831313  17.3790113   4.8881673  87.5291313
  17.7540113   5.5071673  87.0421313  18.0530113   4.4141673  87.8141313
  17.5340113   4.9101673  87.4991313  15.1540113   3.3361673  86.8041313
  15.2310113   3.1671673  85.9511313  15.9000113   3.7421673  87.0011313
  15.2750113   3.3711673  86.7071313  30.7130113   5.9761673  77.2441313
  30.8160113   5.9181673  76.3801313  31.4540113   5.6441673  77.5621313
  30.8380113   5.9191673  77.1631313  24.6330113  12.9411673  78.3511313
  24.4280113  13.7741673  78.1921313  23.8580113  12.5591673  78.4731313
  24.4880113  13.0081673  78.3461313  29.8150113   6.1221673  86.6001313
  29.8130113   5.2591673  86.7241313  29.8820113   6.4461673  87.4071313
  29.8250113   6.0421673  86.7371313  14.5510113   8.5621673  87.0281313
  14.8710113   8.7811673  86.2471313  14.4510113   7.6971673  86.9731313
  14.5830113   8.4671673  86.9051313  16.0070113   4.4981673  73.6461313
  15.3350113   4.5121673  74.2021313  16.1020113   3.6501673  73.4621313
  15.9220113   4.3751673  73.7011313  19.9950113  13.2031673  74.7601313
  20.4360113  13.2831673  75.5081313  19.1900113  12.9871673  75.0181313
  19.9410113  13.1831673  74.9091313  28.5900113   6.9081673  82.5271313
  29.2560113   7.4491673  82.6871313  28.2450113   7.2191673  81.7881313
  28.6370113   7.0341673  82.4421313  28.9030113  14.9741673  78.3341313
  28.7290113  14.3201673  78.8841313  29.6160113  14.7031673  77.9111313
  28.9830113  14.8371673  78.3531313  17.3240113  12.2731673  75.3611313
  17.0800113  11.9661673  76.1411313  17.2910113  11.5701673  74.8451313
  17.2830113  12.1241673  75.4001313  20.1430113  10.5181673  74.1041313
  19.3250113  10.2501673  74.2441313  20.1150113  11.3701673  74.2891313
  20.0180113  10.6051673  74.1521313  26.5780113  12.4271673  86.0251313
  26.7840113  12.7281673  86.8171313  26.5170113  13.1491673  85.5401313
  26.5990113  12.5781673  86.0701313  31.3900113  11.0661673  85.4831313
  31.3580113  10.2041673  85.3481313  30.6970113  11.3681673  85.0491313
  31.2830113  10.9831673  85.3991313  29.4950113  14.3261673  84.2801313
  30.0220113  14.2431673  83.5891313  29.1040113  13.5481673  84.3341313
  29.5150113  14.1991673  84.1861313  25.3680113   5.5781673  80.9811313
  25.9190113   4.9711673  81.2811313  24.9430113   5.8411673  81.6961313
  25.3870113   5.5271673  81.1301313  15.6160113   4.2281673  80.4671313
  15.2480113   4.5301673  81.1981313  16.1500113   3.5991673  80.7511313
  15.6400113   4.1801673  80.6171313  27.3380113   7.4091673  77.5431313
  27.4060113   6.5591673  77.7241313  26.5150113   7.4951673  77.2651313
  27.2260113   7.2961673  77.5291313  17.0900113  15.9031673  76.7531313
  16.9450113  16.0591673  75.9071313  17.9560113  15.9821673  76.8311313
  17.1970113  15.9381673  76.6401313  21.2570113   8.3001673  76.4811313
  21.3570113   8.4391673  75.6261313  22.0750113   8.2401673  76.7771313
  21.3920113   8.3111673  76.3981313  30.4170113  16.3641673  73.9611313
  31.0540113  16.2301673  74.5421313  30.0760113  15.5701673  73.8441313
  30.4610113  16.2271673  74.0291313  26.4920113  12.6291673  76.2831313
  26.2410113  12.5011673  77.1091313  26.1750113  11.9341673  75.8621313
  26.4080113  12.5081673  76.3431313  31.1360113   4.2871673  84.4031313
  30.3030113   4.5371673  84.3311313  31.0800113   3.4471673  84.6321313
  31.0050113   4.2001673  84.4261313  17.7770113  14.7181673  83.2301313
  17.6980113  13.9081673  82.9141313  17.3330113  15.2051673  82.6581313
  17.7000113  14.6701673  83.0991313  23.3780113  10.8371673  75.7131313
  24.0950113  10.4901673  75.3571313  23.3440113  11.6371673  75.3651313
  23.4790113  10.9041673  75.6091313  15.3490113  16.9621673  86.8111313
  15.8420113  16.9061673  87.5291313  15.5370113  16.2291673  86.3761313
  15.4500113  16.8451673  86.8531313  24.5960113   6.3941673  64.6228903
  24.0720113   6.9901673  64.9858903  24.9930113   6.0261673  65.3068903
  24.5770113   6.4281673  64.7778903  14.4650113  10.5341673  60.0788903
  14.0240113  10.6521673  60.8218903  14.1820113   9.7591673  59.7938903
  14.3580113  10.4371673  60.1468903  30.7400113  13.8351673  57.5938903
  31.4410113  13.3161673  57.5898903  30.1530113  13.3901673  57.1248903
  30.7570113  13.6921673  57.5238903  14.2080113   4.3261673  56.5858903
  13.4300113   4.4881673  56.2258903  14.2470113   3.4551673  56.6078903
  14.0990113   4.2211673  56.5358903  17.3470113   9.5891673  55.2578903
  16.9550113   9.2181673  54.5718903  17.2670113   8.9911673  55.8868903
  17.2770113   9.4461673  55.2488903  27.2670113   7.4611673  61.2988903
  27.3470113   7.4651673  60.4298903  26.6830113   6.8291673  61.4478903
  27.1920113   7.3681673  61.1928903  16.9740113  11.2301673  59.1578903
  17.5820113  11.0601673  59.7608903  16.2230113  11.0901673  59.5788903
  16.9530113  11.1841673  59.3088903  15.8650113  14.3211673  55.2348903
  16.3320113  14.4051673  54.5028903  16.3200113  13.7431673  55.7038903
  16.0010113  14.2481673  55.1958903  14.4050113  13.2691673  66.3338903
  14.5340113  12.9891673  67.1498903  13.7950113  12.7281673  66.0248903
  14.3340113  13.1481673  66.4088903  20.9790113  10.7941673  71.4008903
  20.7430113  10.7911673  72.2408903  20.2310113  10.6461673  70.9768903
  20.8330113  10.7711673  71.4618903  15.8510113   7.7901673  60.5358903
  15.3890113   7.3981673  59.9088903  16.5510113   7.2771673  60.6278903
  15.8860113   7.6571673  60.4568903  20.3590113   3.4001673  65.8828903
  21.0370113   3.4181673  65.3338903  20.3140113   2.5641673  66.1278903
  20.4520113   3.2791673  65.8378903  20.9610113  13.9861673  68.6638903
  21.0990113  14.7461673  68.2568903  21.7520113  13.6211673  68.6908903
  21.0980113  14.0451673  68.6078903  17.8520113   5.8901673  60.5588903
  18.6690113   5.7031673  60.8018903  17.3750113   5.2761673  60.9548903
  17.9020113   5.7721673  60.6538903  22.0560113  11.8711673  63.1688903
  22.4040113  11.0721673  63.1988903  22.7210113  12.3751673  62.9138903
  22.2060113  11.8271673  63.1358903  22.1130113  11.3201673  59.3798903
  22.4440113  10.6761673  59.8658903  22.3530113  11.1091673  58.5688903
  22.1970113  11.1941673  59.3318903  24.0810113   5.4511673  70.7188903
  23.2330113   5.3521673  70.5408903  24.1100113   6.1961673  71.1728903
  23.9600113   5.5471673  70.7598903  26.1010113   3.0521673  54.3468903
  25.6510113   3.7331673  54.6538903  26.2150113   2.5481673  55.0498903
  26.0520113   3.0781673  54.4958903  14.3070113   5.5511673  63.5488903
  14.0510113   6.3821673  63.4738903  13.6430113   5.1681673  63.9658903
  14.1710113   5.6171673  63.5998903  14.2170113  15.2611673  61.4488903
  13.6250113  15.8191673  61.1358903  14.6430113  14.9921673  60.7368903
  14.1930113  15.3031673  61.2978903  20.0570113  13.1051673  58.9288903
  19.4780113  12.8301673  59.5208903  20.6810113  12.4961673  58.9538903
  20.0640113  12.9751673  59.0198903  26.2000113  15.3931673  56.4508903
  26.9270113  15.8651673  56.5528903  26.4290113  14.5991673  56.7308903
  26.3420113  15.3461673  56.5078903  24.3680113  15.7851673  58.4408903
  24.5820113  16.3121673  59.1028903  25.1350113  15.6111673  58.0618903
  24.5130113  15.8371673  58.4828903  20.6420113   2.5011673  73.3378903
  20.7590113   2.0471673  72.6018903  20.9300113   3.2991673  73.1348903
  20.7020113   2.5521673  73.1988903  15.7620113  13.9311673  59.3798903
  16.4180113  13.3561673  59.3948903  16.1510113  14.6801673  59.1588903
  15.9170113  13.9561673  59.3498903  31.4950113   3.0251673  60.6418903
  31.1490113   3.7031673  61.0678903  30.8590113   2.4271673  60.6578903
  31.3500113   3.0371673  60.7068903  26.8070113  15.7951673  66.7458903
  27.5510113  16.2511673  66.7358903  26.6860113  15.5811673  65.9088903
  26.8990113  15.8311673  66.6208903  16.5800113  12.4181673  62.8798903
  17.0030113  12.0621673  62.2058903  16.9040113  11.9961673  63.5718903
  16.6900113  12.3031673  62.8828903  19.8110113  15.2701673  62.1758903
  20.6550113  15.3741673  61.9808903  19.5140113  16.0881673  62.2438903
  19.8920113  15.4061673  62.1568903  23.6180113   4.6671673  60.2628903
  23.9050113   4.4351673  59.4728903  24.3500113   4.7461673  60.7318903
  23.7680113   4.6441673  60.2158903  24.3400113   5.0061673  55.3838903
  24.6210113   5.7941673  55.6328903  23.5640113   5.1711673  55.0208903
  24.2670113   5.1471673  55.3668903  28.3810113  16.9801673  56.8508903
  29.0460113  16.8321673  56.3058903  28.7410113  16.8971673  57.6408903
  28.5330113  16.9461673  56.8868903  18.8090113  16.4891673  67.9158903
  19.1010113  16.4221673  68.7358903  18.1830113  15.8841673  67.8708903
  18.7600113  16.3901673  68.0308903  13.7230113   2.6461673  69.9078903
  13.7190113   3.2331673  70.5538903  14.3170113   2.9581673  69.3508903
  13.8100113   2.7791673  69.9208903  26.0610113  12.9801673  70.4498903
  26.0270113  13.3621673  71.2338903  26.9150113  12.9381673  70.2788903
  26.1820113  13.0301673  70.5408903  23.1990113  13.1771673  55.1998903
  23.0180113  13.7221673  55.8568903  23.9650113  13.4671673  54.8988903
  23.2850113  13.3011673  55.2528903  16.8020113  14.6511673  67.0378903
  16.1040113  14.1431673  67.1638903  17.0620113  14.4461673  66.2298903
  16.7370113  14.5461673  66.9368903  23.9640113   3.4491673  57.5678903
  23.4560113   2.7871673  57.3138903  24.0160113   3.9531673  56.8578903
  23.8970113   3.4261673  57.4258903  24.5130113  16.1441673  67.9478903
  25.2810113  16.0641673  67.5418903  23.9300113  16.0231673  67.3098903
  24.5400113  16.1141673  67.7938903  30.7900113  16.7471673  60.8488903
  30.3350113  17.4641673  61.0498903  30.1760113  16.1761673  60.6068903
  30.6320113  16.7691673  60.8428903  22.5620113   2.7571673  61.9808903
  22.6360113   3.3251673  61.3228903  22.6830113   3.2491673  62.6908903
  22.5900113   2.9141673  61.9888903  27.7870113  12.5921673  60.3928903
  28.4880113  12.1101673  60.5818903  27.1270113  12.0231673  60.4378903
  27.7930113  12.4371673  60.4268903  18.1630113  13.5021673  69.6048903
  19.0040113  13.5651673  69.3828903  18.1260113  13.8991673  70.3808903
  18.2820113  13.5701673  69.6868903  20.1260113   9.0131673  64.3538903
  20.2980113   8.8031673  65.1828903  19.4710113   8.4791673  64.1378903
  20.0550113   8.9031673  64.4448903  26.3540113   2.9271673  67.8688903
  26.2590113   3.2461673  68.6748903  25.7610113   2.2881673  67.8308903
  26.2520113   2.8791673  67.9828903  20.8760113   8.9511673  66.9438903
  20.9290113   9.7981673  67.1458903  20.5910113   8.5811673  67.6808903
  20.8420113   9.0211673  67.0818903  27.0530113   9.6461673  66.0738903
  26.5390113   9.2341673  66.6448903  26.9270113  10.4901673  66.2548903
  26.9590113   9.7101673  66.1848903  13.6970113  13.3221673  73.1548903
  14.4530113  13.6711673  73.4128903  13.8740113  12.4691673  73.0978903
  13.8350113  13.2471673  73.1848903  30.0740113   3.1071673  69.0128903
  30.8460113   2.8821673  69.3498903  29.5990113   3.3241673  69.7128903
  30.1180113   3.1061673  69.1658903  17.6180113   2.3901673  61.9828903
  17.8900113   1.9601673  61.2748903  17.4420113   1.7541673  62.5538903
  17.6320113   2.2331673  61.9628903  30.3060113  10.0851673  56.2008903
  30.4250113   9.7981673  57.0158903  31.1130113  10.1061673  55.8708903
  30.4420113  10.0461673  56.2728903  17.4420113   9.8171673  61.5318903
  18.2930113   9.7371673  61.3588903  17.0850113   9.1351673  61.1198903
  17.5150113   9.7041673  61.4448903  16.2090113  16.5421673  62.7688903
  15.5360113  16.0441673  62.5238903  16.6120113  16.7271673  62.0178903
  16.1690113  16.4961673  62.6218903  15.7590113   3.4921673  65.0648903
  16.6020113   3.7121673  65.0218903  15.3700113   4.0651673  64.5338903
  15.8260113   3.6091673  64.9798903  32.5400113  14.5941673  70.4548903
  31.8580113  14.9041673  70.0078903  32.1710113  14.1361673  71.0998903
  32.3840113  14.5721673  70.4838903  28.2010113   6.6221673  55.7858903
  27.9810113   7.3531673  55.3638903  27.7530113   6.6731673  56.5328903
  28.1020113   6.7371673  55.8338903  19.8100113   9.8241673  59.7668903
  20.5230113  10.3191673  59.8568903  20.0320113   9.2571673  59.1408903
  19.9480113   9.8131673  59.6878903  13.9660113  11.4671673  63.0868903
  13.2990113  11.9551673  63.3628903  14.6460113  12.0121673  63.1158903
  13.9680113  11.6191673  63.1318903  21.6130113   5.1771673  73.1828903
  21.1290113   5.7541673  73.6248903  21.5850113   5.4721673  72.3618903
  21.5370113   5.3061673  73.1268903  32.7110113   5.8611673  67.7948903
  32.9260113   5.0611673  67.5188903  31.8610113   5.9211673  67.6058903
  32.6170113   5.7521673  67.7258903  14.0320113   8.1511673  58.1898903
  13.8470113   7.3121673  58.3418903  14.6910113   8.1151673  57.6198903
  14.1020113   8.0221673  58.1278903  24.3330113  13.5271673  62.0938903
  23.8100113  14.1611673  61.8008903  24.6430113  13.1631673  61.3648903
  24.3010113  13.5671673  61.9428903  14.2040113  12.3151673  57.7648903
  14.7560113  12.8841673  58.1288903  13.9720113  11.8001673  58.4298903
  14.2510113  12.3231673  57.9168903  18.4080113  11.3151673  64.8538903
  18.8750113  11.6041673  65.5318903  18.9800113  10.8371673  64.3998903
  18.5620113  11.2871673  64.8868903  26.8440113   3.3291673  62.5908903
  27.1880113   3.4811673  63.3778903  26.3910113   2.5911673  62.7038903
  26.8280113   3.2421673  62.7238903  14.0340113  10.7641673  55.3928903
  14.7900113  10.3321673  55.4508903  14.0490113  11.2961673  56.0838903
  14.1480113  10.7791673  55.5038903  14.9740113   8.9851673  63.3978903
  15.4050113   8.8561673  62.6508903  14.7690113   9.8331673  63.3718903
  15.0070113   9.0911673  63.2838903  21.3200113   2.5491673  57.0478903
  21.3180113   2.4321673  56.1828903  21.1390113   3.3971673  57.1398903
  21.2930113   2.6571673  56.9338903  30.3740113  14.9761673  68.5448903
  29.7030113  15.4901673  68.7628903  30.4370113  15.0761673  67.6808903
  30.2840113  15.0671673  68.4498903  19.0580113  12.5011673  61.6798903
  19.1840113  13.3441673  61.8668903  19.7260113  12.1021673  62.0758903
  19.1760113  12.5671673  61.7658903  17.1880113   5.9841673  71.5418903
  16.6520113   5.4781673  72.0098903  17.2080113   5.5941673  70.7618903
  17.1110113   5.8511673  71.4958903  17.6730113   5.3811673  56.6818903
  17.5450113   4.9331673  57.4198903  17.0910113   5.0391673  56.1298903
  17.5680113   5.2641673  56.7098903  17.8400113   7.2111673  63.2808903
  17.0590113   7.1521673  62.8978903  17.9120113   6.4591673  63.7178903
  17.7350113   7.0921673  63.2888903  18.2700113   6.9481673  66.7488903
  18.2950113   6.2731673  66.1978903  17.6240113   7.4441673  66.4368903
  18.1790113   6.9211673  66.6218903  28.1650113   4.6611673  65.1448903
  27.5030113   4.9891673  65.6078903  28.3520113   5.2951673  64.5758903
  28.0950113   4.8031673  65.1288903  22.3700113  15.7251673  66.1408903
  22.0930113  15.0841673  65.6178903  22.1620113  16.4511673  65.7028903
  22.2990113  15.7381673  65.9988903  26.3580113   2.6301673  58.6558903
  26.8480113   3.3471673  58.5788903  25.5680113   2.8911673  58.3928903
  26.3140113   2.7741673  58.6058903  16.0690113   8.3031673  72.3078903
  16.0320113   8.8041673  71.5938903  16.4000113   7.5511673  72.0128903
  16.1120113   8.2651673  72.1588903  27.6720113  10.5081673  70.5658903
  28.1560113  11.2261673  70.6638903  28.0660113  10.0811673  69.9148903
  27.8020113  10.5511673  70.4838903  21.9680113  13.3531673  71.7428903
  22.3220113  13.1751673  72.5198903  21.5320113  12.6241673  71.5438903
  21.9560113  13.2191673  71.8288903  22.9400113   4.1001673  64.3808903
  23.4200113   4.7991673  64.5888903  23.3130113   3.4531673  64.8318903
  23.0660113   4.1081673  64.4778903  25.1290113   7.2691673  56.6548903
  25.1210113   7.9911673  56.1648903  24.4900113   7.4041673  57.2318903
  25.0340113   7.3961673  56.6678903  30.1010113  11.1391673  60.6358903
  30.4570113  10.7891673  61.3508903  30.0930113  10.4781673  60.0658903
  30.1530113  10.9891673  60.6568903  26.1460113  14.2051673  64.4798903
  25.5430113  13.9091673  63.9228903  26.6910113  14.6571673  63.9708903
  26.1370113  14.2281673  64.3218903  26.1590113  11.0561673  63.8798903
  25.3620113  11.2801673  64.1538903  26.4170113  10.4621673  64.4648903
  26.0790113  11.0011673  64.0068903  20.0510113  15.8681673  58.3278903
  19.9040113  15.0921673  58.6988903  20.7400113  15.7211673  57.8128903
  20.1310113  15.7311673  58.3068903  22.3430113  15.3841673  56.7298903
  22.9650113  15.5471673  57.3198903  22.3790113  16.0751673  56.1978903
  22.4400113  15.5101673  56.7388903  29.4190113   9.0541673  68.7258903
  29.4740113   9.1791673  67.8638903  30.1720113   9.3741673  69.0278903
  29.5380113   9.1191673  68.6428903  25.6100113  14.4031673  73.0028903
  25.7740113  14.6861673  73.8118903  25.8730113  15.0641673  72.4978903
  25.6730113  14.5431673  73.0478903  16.8440113   7.9181673  57.5588903
  17.1680113   7.1391673  57.3368903  17.4900113   8.2861673  58.0138903
  16.9870113   7.8571673  57.5928903  25.1500113   8.8601673  68.3258903
  24.9950113   9.4701673  68.9298903  25.6840113   8.3021673  68.7318903
  25.2060113   8.8681673  68.4748903  23.5340113   7.2601673  58.9838903
  23.5930113   7.9101673  59.5628903  23.3450113   6.5641673  59.4748903
  23.5150113   7.2531673  59.1418903  28.7600113  11.5891673  64.8528903
  28.2810113  11.8871673  64.1868903  28.4040113  10.8131673  65.0308903
  28.6370113  11.5181673  64.7808903  18.0300113   1.7771673  55.4958903
  17.5190113   1.8301673  54.7898903  18.8140113   2.0171673  55.1998903
  18.0700113   1.8201673  55.3478903  22.7570113   9.3071673  63.4148903
  21.9100113   9.1131673  63.4958903  23.0810113   9.1421673  64.2078903
  22.6790113   9.2541673  63.5438903  19.5090113  16.0371673  54.3008903
  19.9480113  15.3401673  54.5888903  19.7160113  16.6611673  54.8738903
  19.6050113  16.0261673  54.4278903  16.6050113   9.0001673  65.7308903
  17.3270113   9.4881673  65.6938903  16.3350113   8.9701673  64.9018903
  16.6720113   9.0681673  65.6028903  19.8350113   4.1711673  62.4658903
  20.6810113   3.9811673  62.5638903  19.4650113   3.3941673  62.3278903
  19.9050113   4.0281673  62.4598903  32.4520113  15.7551673  56.7928903
  33.1460113  15.2881673  56.5448903  31.9130113  15.1571673  57.1298903
  32.4750113  15.5971673  56.8058903  14.6560113   5.5091673  59.1208903
  15.1450113   5.2171673  59.7818903  14.7850113   4.9161673  58.4938903
  14.7470113   5.3781673  59.1258903  29.6910113   8.5311673  65.9718903
  29.6840113   7.7551673  66.3698903  28.8500113   8.7651673  65.9648903
  29.5660113   8.4511673  66.0298903  19.1810113   6.9431673  54.6068903
  18.5710113   6.5381673  55.0808903  18.7950113   7.0611673  53.8338903
  19.0340113   6.9001673  54.5628903  16.0000113  10.0521673  70.0088903
  15.5790113   9.5341673  69.4478903  15.6480113  10.8381673  69.8658903
  15.8860113  10.0921673  69.9048903  30.9470113   8.6021673  63.4088903
  30.6610113   9.0031673  64.1288903  31.8070113   8.5401673  63.5358903
  31.0320113   8.6521673  63.5338903  20.6360113   5.4041673  57.3168903
  20.9080113   6.2301673  57.3838903  19.7730113   5.4791673  57.2208903
  20.5490113   5.5371673  57.3118903  28.6090113   2.5261673  71.9488903
  28.0840113   2.9851673  72.4728903  28.2480113   1.7311673  71.9428903
  28.4780113   2.4761673  72.0248903  32.0780113  14.2351673  63.9378903
  32.3680113  14.4921673  63.1568903  32.7730113  14.3311673  64.4568903
  32.2240113  14.2871673  63.8988903  27.1010113   6.0951673  72.0248903
  27.1740113   6.1991673  72.8878903  26.4670113   6.6531673  71.8038903
  27.0180113   6.1931673  72.1198903  29.3690113   6.4141673  70.3898903
  29.6880113   7.2001673  70.5928903  28.9990113   6.1441673  71.1328903
  29.3620113   6.4901673  70.5298903  28.6830113  12.8381673  55.9198903
  29.0170113  12.0321673  55.9548903  27.9280113  12.7661673  56.3498903
  28.6210113  12.7081673  55.9888903  29.1650113   4.6721673  61.5788903
  28.4200113   4.3491673  61.8968903  29.1670113   5.4981673  61.8588903
  29.0550113   4.7461673  61.6668903  32.0670113   6.9561673  73.1248903
  32.0150113   6.6151673  72.3238903  32.8040113   7.4231673  73.1028903
  32.1680113   6.9751673  73.0028903  31.6050113  10.6321673  69.3308903
  32.2330113  10.0831673  69.0748903  31.5440113  11.1971673  68.6688903
  31.6890113  10.6351673  69.1948903  26.0570113  10.7131673  55.3228903
  26.7410113  10.1991673  55.1538903  25.6400113  10.7591673  54.5578903
  26.0960113  10.6441673  55.1848903  20.7390113  11.8631673  66.6268903
  20.4410113  12.4551673  67.1938903  20.7940113  12.3051673  65.8778903
  20.7030113  12.0161673  66.5998903  18.7180113  10.8131673  70.0248903
  17.9120113  10.5231673  70.1918903  18.6290113  11.6811673  70.0308903
  18.5860113  10.8981673  70.0498903  23.2550113   8.2861673  66.1178903
  23.7310113   8.6601673  66.7458903  22.4320113   8.4201673  66.3768903
  23.2040113   8.3611673  66.2488903  19.9650113   3.8891673  68.8588903
  20.1260113   3.1451673  69.2858903  19.9200113   3.6401673  68.0238903
  19.9820113   3.7421673  68.7988903  22.5190113  15.6791673  61.3458903
  23.0650113  16.3581673  61.3998903  22.1690113  15.7611673  60.5508903
  22.5480113  15.7921673  61.2358903  20.7020113  13.9071673  64.7348903
  20.0780113  14.4891673  64.5528903  20.9500113  13.6211673  63.9488903
  20.6460113  13.9511673  64.5918903  25.0110113  10.5411673  71.7238903
  25.7680113  10.8271673  71.3978903  24.4640113  10.5931673  71.0458903
  25.0420113  10.5911673  71.5748903  28.9200113  13.0911673  70.2278903
  29.2660113  13.3611673  70.9818903  29.2140113  13.6731673  69.6478903
  29.0150113  13.2171673  70.2538903  30.7830113   5.2371673  55.5668903
  31.1610113   5.9141673  55.1668903  29.9410113   5.4611673  55.5978903
  30.7140113   5.3701673  55.5118903  22.2960113   8.6831673  54.6498903
  21.4910113   8.5061673  54.3648903  22.2630113   9.5341673  54.8418903
  22.1720113   8.7821673  54.6368903  18.2260113   4.7501673  64.7998903
  18.6660113   4.6471673  64.0538903  18.7710113   4.4371673  65.4048903
  18.3710113   4.6891673  64.7788903  26.2420113   3.8521673  70.3918903
  25.5940113   4.3221673  70.7398903  26.8070113   3.7631673  71.0508903
  26.2300113   3.9081673  70.5408903  25.9300113   5.3891673  66.6898903
  26.2320113   5.8091673  67.3928903  25.9660113   4.5491673  66.9218903
  25.9800113   5.3271673  66.8278903  23.3550113  15.5561673  70.6148903
  23.8330113  14.9561673  70.1988903  23.0040113  15.1131673  71.2798903
  23.3740113  15.4021673  70.6518903  28.4780113   4.8361673  58.9418903
  28.6850113   4.6351673  59.7658903  29.2340113   5.1041673  58.5998903
  28.6200113   4.8461673  59.0128903  29.9430113   8.8631673  58.7958903
  30.4190113   8.1341673  58.7478903  29.1220113   8.5771673  58.7198903
  29.8920113   8.7131673  58.7768903  23.4140113  10.7751673  69.6348903
  22.6190113  10.7111673  69.9858903  23.4850113  11.6221673  69.4398903
  23.3070113  10.8901673  69.6578903  19.2440113  16.9821673  64.9518903
  19.2550113  17.0411673  65.8218903  18.8190113  16.2351673  64.8018903
  19.1830113  16.8801673  65.0578903  17.4020113   2.8771673  58.1068903
  17.5280113   2.5481673  57.3088903  16.5900113   2.6281673  58.3058903
  17.3010113   2.7921673  58.0188903  26.1590113  10.0301673  61.1508903
  26.2350113  10.3711673  61.9498903  26.3280113   9.1831673  61.2718903
  26.1950113   9.9551673  61.2868903  23.6810113   9.3041673  60.7158903
  23.3830113   8.9891673  61.4728903  24.3760113   9.7771673  60.9508903
  23.7400113   9.3271673  60.8628903  23.9030113  13.4221673  68.7428903
  24.5900113  13.3081673  69.2678903  24.0370113  14.2131673  68.3988903
  24.0240113  13.5221673  68.7698903  32.0790113   6.0311673  70.5538903
  31.2240113   5.9091673  70.6798903  32.2320113   5.6361673  69.7908903
  31.9750113   5.9541673  70.4598903  26.5920113   6.6961673  69.1298903
  26.3370113   5.9771673  69.5518903  27.4130113   6.8121673  69.3998903
  26.6760113   6.6071673  69.2318903  16.0080113  16.4801673  70.3938903
  15.3540113  15.9111673  70.4918903  15.6330113  17.2531673  70.5448903
  15.8560113  16.5101673  70.4308903  24.5260113   7.8861673  72.3168903
  24.8490113   8.5721673  71.8848903  23.8220113   8.2091673  72.7188903
  24.4690113   8.0351673  72.3118903  27.6100113  16.2601673  63.2458903
  27.1590113  16.9031673  63.6248903  28.3180113  16.1811673  63.7508903
  27.6480113  16.3431673  63.3768903  24.3110113  11.3501673  66.1758903
  23.6170113  11.7521673  66.5188903  24.9880113  11.7831673  66.5148903
  24.3080113  11.4731673  66.2768903  29.6880113  13.9431673  72.7558903
  30.4640113  13.5531673  72.8388903  29.2190113  13.6071673  73.4108903
  29.7330113  13.8361673  72.8648903  17.3790113   4.8881673  68.5228903
  17.7540113   5.5071673  68.0358903  18.0530113   4.4141673  68.8078903
  17.5340113   4.9101673  68.4928903  15.1540113   3.3361673  67.7978903
  15.2310113   3.1671673  66.9448903  15.9000113   3.7421673  67.9948903
  15.2750113   3.3711673  67.7008903  30.7130113   5.9761673  58.2378903
  30.8160113   5.9181673  57.3738903  31.4540113   5.6441673  58.5558903
  30.8380113   5.9191673  58.1568903  24.6330113  12.9411673  59.3448903
  24.4280113  13.7741673  59.1858903  23.8580113  12.5591673  59.4668903
  24.4880113  13.0081673  59.3398903  29.8150113   6.1221673  67.5938903
  29.8130113   5.2591673  67.7178903  29.8820113   6.4461673  68.4008903
  29.8250113   6.0421673  67.7308903  14.5510113   8.5621673  68.0218903
  14.8710113   8.7811673  67.2408903  14.4510113   7.6971673  67.9668903
  14.5830113   8.4671673  67.8988903  16.0070113   4.4981673  54.6398903
  15.3350113   4.5121673  55.1958903  16.1020113   3.6501673  54.4558903
  15.9220113   4.3751673  54.6948903  19.9950113  13.2031673  55.7538903
  20.4360113  13.2831673  56.5018903  19.1900113  12.9871673  56.0118903
  19.9410113  13.1831673  55.9028903  19.3140113   7.8541673  69.4068903
  18.9180113   8.6281673  69.4818903  18.9080113   7.4811673  68.7308903
  19.1960113   7.9131673  69.3178903  28.5900113   6.9081673  63.5208903
  29.2560113   7.4491673  63.6808903  28.2450113   7.2191673  62.7818903
  28.6370113   7.0341673  63.4358903  28.9030113  14.9741673  59.3278903
  28.7290113  14.3201673  59.8778903  29.6160113  14.7031673  58.9048903
  28.9830113  14.8371673  59.3468903  17.3240113  12.2731673  56.3548903
  17.0800113  11.9661673  57.1348903  17.2910113  11.5701673  55.8388903
  17.2830113  12.1241673  56.3938903  20.1430113  10.5181673  55.0978903
  19.3250113  10.2501673  55.2378903  20.1150113  11.3701673  55.2828903
  20.0180113  10.6051673  55.1458903  26.5780113  12.4271673  67.0188903
  26.7840113  12.7281673  67.8108903  26.5170113  13.1491673  66.5338903
  26.5990113  12.5781673  67.0638903  26.1120113  16.6411673  71.2648903
  25.3590113  16.6231673  70.8238903  26.2800113  17.4931673  71.3488903
  26.0260113  16.7641673  71.2118903  21.3490113   5.9081673  70.4348903
  21.0270113   5.3321673  69.8648903  20.9900113   6.6631673  70.1888903
  21.2490113   5.9341673  70.3148903  31.3900113  11.0661673  66.4768903
  31.3580113  10.2041673  66.3418903  30.6970113  11.3681673  66.0428903
  31.2830113  10.9831673  66.3928903  19.7840113  16.2641673  70.6828903
  19.8250113  16.3901673  71.5458903  20.4350113  15.7041673  70.5268903
  19.8860113  16.2001673  70.7878903  29.4950113  14.3261673  65.2738903
  30.0220113  14.2431673  64.5828903  29.1040113  13.5481673  65.3278903
  29.5150113  14.1991673  65.1798903  17.3770113  14.6471673  72.0428903
  17.9720113  15.0781673  72.5148903  17.0130113  15.2711673  71.5538903
  17.4110113  14.8031673  72.0398903  25.3680113   5.5781673  61.9748903
  25.9190113   4.9711673  62.2748903  24.9430113   5.8411673  62.6898903
  25.3870113   5.5271673  62.1238903  15.6160113   4.2281673  61.4608903
  15.2480113   4.5301673  62.1918903  16.1500113   3.5991673  61.7448903
  15.6400113   4.1801673  61.6108903  15.3040113  12.6361673  68.9718903
  14.7300113  13.0521673  69.4808903  16.0370113  13.1011673  69.0668903
  15.3280113  12.7661673  69.0608903  27.3380113   7.4091673  58.5368903
  27.4060113   6.5591673  58.7178903  26.5150113   7.4951673  58.2588903
  27.2260113   7.2961673  58.5228903  17.0900113  15.9031673  57.7468903
  16.9450113  16.0591673  56.9008903  17.9560113  15.9821673  57.8248903
  17.1970113  15.9381673  57.6338903  21.2570113   8.3001673  57.4748903
  21.3570113   8.4391673  56.6198903  22.0750113   8.2401673  57.7708903
  21.3920113   8.3111673  57.3918903  30.4170113  16.3641673  54.9548903
  31.0540113  16.2301673  55.5358903  30.0760113  15.5701673  54.8378903
  30.4610113  16.2271673  55.0228903  30.6120113   8.7821673  71.6878903
  31.2460113   8.6121673  72.2618903  31.0290113   9.1851673  71.0358903
  30.7670113   8.8171673  71.6768903  26.4920113  12.6291673  57.2768903
  26.2410113  12.5011673  58.1028903  26.1750113  11.9341673  56.8558903
  26.4080113  12.5081673  57.3368903  31.2370113   3.3461673  72.4258903
  31.0410113   3.9901673  72.9808903  30.5150113   2.8561673  72.4178903
  31.1020113   3.3691673  72.5068903  31.1360113   4.2871673  65.3968903
  30.3030113   4.5371673  65.3248903  31.0800113   3.4471673  65.6258903
  31.0050113   4.2001673  65.4198903  28.0230113   8.8931673  73.0428903
  28.8940113   8.8571673  73.0068903  27.8040113   9.3131673  72.3108903
  28.1200113   8.9491673  72.9298903  17.7770113  14.7181673  64.2238903
  17.6980113  13.9081673  63.9078903  17.3330113  15.2051673  63.6518903
  17.7000113  14.6701673  64.0928903  23.3780113  10.8371673  56.7068903
  24.0950113  10.4901673  56.3508903  23.3440113  11.6371673  56.3588903
  23.4790113  10.9041673  56.6028903  15.3490113  16.9621673  67.8048903
  15.8420113  16.9061673  68.5228903  15.5370113  16.2291673  67.3698903
  15.4500113  16.8451673  67.8468903  24.5960113   6.3941673  45.6166493
  24.0720113   6.9901673  45.9796493  24.9930113   6.0261673  46.3006493
  24.5770113   6.4281673  45.7716493  14.4650113  10.5341673  41.0726493
  14.0240113  10.6521673  41.8156493  14.1820113   9.7591673  40.7876493
  14.3580113  10.4371673  41.1406493  30.7400113  13.8351673  38.5876493
  31.4410113  13.3161673  38.5836493  30.1530113  13.3901673  38.1186493
  30.7570113  13.6921673  38.5176493  14.2080113   4.3261673  37.5796493
  13.4300113   4.4881673  37.2196493  14.2470113   3.4551673  37.6016493
  14.0990113   4.2211673  37.5296493  17.3470113   9.5891673  36.2516493
  16.9550113   9.2181673  35.5656493  17.2670113   8.9911673  36.8806493
  17.2770113   9.4461673  36.2426493  27.2670113   7.4611673  42.2926493
  27.3470113   7.4651673  41.4236493  26.6830113   6.8291673  42.4416493
  27.1920113   7.3681673  42.1866493  16.9740113  11.2301673  40.1516493
  17.5820113  11.0601673  40.7546493  16.2230113  11.0901673  40.5726493
  16.9530113  11.1841673  40.3026493  15.8650113  14.3211673  36.2286493
  16.3320113  14.4051673  35.4966493  16.3200113  13.7431673  36.6976493
  16.0010113  14.2481673  36.1896493  14.4050113  13.2691673  47.3276493
  14.5340113  12.9891673  48.1436493  13.7950113  12.7281673  47.0186493
  14.3340113  13.1481673  47.4026493  20.9790113  10.7941673  52.3946493
  20.7430113  10.7911673  53.2346493  20.2310113  10.6461673  51.9706493
  20.8330113  10.7711673  52.4556493  15.8510113   7.7901673  41.5296493
  15.3890113   7.3981673  40.9026493  16.5510113   7.2771673  41.6216493
  15.8860113   7.6571673  41.4506493  20.3590113   3.4001673  46.8766493
  21.0370113   3.4181673  46.3276493  20.3140113   2.5641673  47.1216493
  20.4520113   3.2791673  46.8316493  20.9610113  13.9861673  49.6576493
  21.0990113  14.7461673  49.2506493  21.7520113  13.6211673  49.6846493
  21.0980113  14.0451673  49.6016493  17.8520113   5.8901673  41.5526493
  18.6690113   5.7031673  41.7956493  17.3750113   5.2761673  41.9486493
  17.9020113   5.7721673  41.6476493  22.0560113  11.8711673  44.1626493
  22.4040113  11.0721673  44.1926493  22.7210113  12.3751673  43.9076493
  22.2060113  11.8271673  44.1296493  22.1130113  11.3201673  40.3736493
  22.4440113  10.6761673  40.8596493  22.3530113  11.1091673  39.5626493
  22.1970113  11.1941673  40.3256493  24.0810113   5.4511673  51.7126493
  23.2330113   5.3521673  51.5346493  24.1100113   6.1961673  52.1666493
  23.9600113   5.5471673  51.7536493  26.1010113   3.0521673  35.3406493
  25.6510113   3.7331673  35.6476493  26.2150113   2.5481673  36.0436493
  26.0520113   3.0781673  35.4896493  14.3070113   5.5511673  44.5426493
  14.0510113   6.3821673  44.4676493  13.6430113   5.1681673  44.9596493
  14.1710113   5.6171673  44.5936493  14.2170113  15.2611673  42.4426493
  13.6250113  15.8191673  42.1296493  14.6430113  14.9921673  41.7306493
  14.1930113  15.3031673  42.2916493  20.0570113  13.1051673  39.9226493
  19.4780113  12.8301673  40.5146493  20.6810113  12.4961673  39.9476493
  20.0640113  12.9751673  40.0136493  26.2000113  15.3931673  37.4446493
  26.9270113  15.8651673  37.5466493  26.4290113  14.5991673  37.7246493
  26.3420113  15.3461673  37.5016493  24.3680113  15.7851673  39.4346493
  24.5820113  16.3121673  40.0966493  25.1350113  15.6111673  39.0556493
  24.5130113  15.8371673  39.4766493  20.6420113   2.5011673  54.3316493
  20.7590113   2.0471673  53.5956493  20.9300113   3.2991673  54.1286493
  20.7020113   2.5521673  54.1926493  15.7620113  13.9311673  40.3736493
  16.4180113  13.3561673  40.3886493  16.1510113  14.6801673  40.1526493
  15.9170113  13.9561673  40.3436493  31.4950113   3.0251673  41.6356493
  31.1490113   3.7031673  42.0616493  30.8590113   2.4271673  41.6516493
  31.3500113   3.0371673  41.7006493  26.8070113  15.7951673  47.7396493
  27.5510113  16.2511673  47.7296493  26.6860113  15.5811673  46.9026493
  26.8990113  15.8311673  47.6146493  16.5800113  12.4181673  43.8736493
  17.0030113  12.0621673  43.1996493  16.9040113  11.9961673  44.5656493
  16.6900113  12.3031673  43.8766493  19.8110113  15.2701673  43.1696493
  20.6550113  15.3741673  42.9746493  19.5140113  16.0881673  43.2376493
  19.8920113  15.4061673  43.1506493  23.6180113   4.6671673  41.2566493
  23.9050113   4.4351673  40.4666493  24.3500113   4.7461673  41.7256493
  23.7680113   4.6441673  41.2096493  24.3400113   5.0061673  36.3776493
  24.6210113   5.7941673  36.6266493  23.5640113   5.1711673  36.0146493
  24.2670113   5.1471673  36.3606493  28.3810113  16.9801673  37.8446493
  29.0460113  16.8321673  37.2996493  28.7410113  16.8971673  38.6346493
  28.5330113  16.9461673  37.8806493  18.8090113  16.4891673  48.9096493
  19.1010113  16.4221673  49.7296493  18.1830113  15.8841673  48.8646493
  18.7600113  16.3901673  49.0246493  13.7230113   2.6461673  50.9016493
  13.7190113   3.2331673  51.5476493  14.3170113   2.9581673  50.3446493
  13.8100113   2.7791673  50.9146493  26.0610113  12.9801673  51.4436493
  26.0270113  13.3621673  52.2276493  26.9150113  12.9381673  51.2726493
  26.1820113  13.0301673  51.5346493  23.1990113  13.1771673  36.1936493
  23.0180113  13.7221673  36.8506493  23.9650113  13.4671673  35.8926493
  23.2850113  13.3011673  36.2466493  16.8020113  14.6511673  48.0316493
  16.1040113  14.1431673  48.1576493  17.0620113  14.4461673  47.2236493
  16.7370113  14.5461673  47.9306493  23.9640113   3.4491673  38.5616493
  23.4560113   2.7871673  38.3076493  24.0160113   3.9531673  37.8516493
  23.8970113   3.4261673  38.4196493  24.5130113  16.1441673  48.9416493
  25.2810113  16.0641673  48.5356493  23.9300113  16.0231673  48.3036493
  24.5400113  16.1141673  48.7876493  30.7900113  16.7471673  41.8426493
  30.3350113  17.4641673  42.0436493  30.1760113  16.1761673  41.6006493
  30.6320113  16.7691673  41.8366493  22.5620113   2.7571673  42.9746493
  22.6360113   3.3251673  42.3166493  22.6830113   3.2491673  43.6846493
  22.5900113   2.9141673  42.9826493  27.7870113  12.5921673  41.3866493
  28.4880113  12.1101673  41.5756493  27.1270113  12.0231673  41.4316493
  27.7930113  12.4371673  41.4206493  18.1630113  13.5021673  50.5986493
  19.0040113  13.5651673  50.3766493  18.1260113  13.8991673  51.3746493
  18.2820113  13.5701673  50.6806493  20.1260113   9.0131673  45.3476493
  20.2980113   8.8031673  46.1766493  19.4710113   8.4791673  45.1316493
  20.0550113   8.9031673  45.4386493  26.3540113   2.9271673  48.8626493
  26.2590113   3.2461673  49.6686493  25.7610113   2.2881673  48.8246493
  26.2520113   2.8791673  48.9766493  20.8760113   8.9511673  47.9376493
  20.9290113   9.7981673  48.1396493  20.5910113   8.5811673  48.6746493
  20.8420113   9.0211673  48.0756493  27.0530113   9.6461673  47.0676493
  26.5390113   9.2341673  47.6386493  26.9270113  10.4901673  47.2486493
  26.9590113   9.7101673  47.1786493  13.6970113  13.3221673  54.1486493
  14.4530113  13.6711673  54.4066493  13.8740113  12.4691673  54.0916493
  13.8350113  13.2471673  54.1786493  30.0740113   3.1071673  50.0066493
  30.8460113   2.8821673  50.3436493  29.5990113   3.3241673  50.7066493
  30.1180113   3.1061673  50.1596493  17.6180113   2.3901673  42.9766493
  17.8900113   1.9601673  42.2686493  17.4420113   1.7541673  43.5476493
  17.6320113   2.2331673  42.9566493  30.3060113  10.0851673  37.1946493
  30.4250113   9.7981673  38.0096493  31.1130113  10.1061673  36.8646493
  30.4420113  10.0461673  37.2666493  17.4420113   9.8171673  42.5256493
  18.2930113   9.7371673  42.3526493  17.0850113   9.1351673  42.1136493
  17.5150113   9.7041673  42.4386493  16.2090113  16.5421673  43.7626493
  15.5360113  16.0441673  43.5176493  16.6120113  16.7271673  43.0116493
  16.1690113  16.4961673  43.6156493  15.7590113   3.4921673  46.0586493
  16.6020113   3.7121673  46.0156493  15.3700113   4.0651673  45.5276493
  15.8260113   3.6091673  45.9736493  32.5400113  14.5941673  51.4486493
  31.8580113  14.9041673  51.0016493  32.1710113  14.1361673  52.0936493
  32.3840113  14.5721673  51.4776493  28.2010113   6.6221673  36.7796493
  27.9810113   7.3531673  36.3576493  27.7530113   6.6731673  37.5266493
  28.1020113   6.7371673  36.8276493  19.8100113   9.8241673  40.7606493
  20.5230113  10.3191673  40.8506493  20.0320113   9.2571673  40.1346493
  19.9480113   9.8131673  40.6816493  13.9660113  11.4671673  44.0806493
  13.2990113  11.9551673  44.3566493  14.6460113  12.0121673  44.1096493
  13.9680113  11.6191673  44.1256493  21.6130113   5.1771673  54.1766493
  21.1290113   5.7541673  54.6186493  21.5850113   5.4721673  53.3556493
  21.5370113   5.3061673  54.1206493  32.7110113   5.8611673  48.7886493
  32.9260113   5.0611673  48.5126493  31.8610113   5.9211673  48.5996493
  32.6170113   5.7521673  48.7196493  14.0320113   8.1511673  39.1836493
  13.8470113   7.3121673  39.3356493  14.6910113   8.1151673  38.6136493
  14.1020113   8.0221673  39.1216493  24.3330113  13.5271673  43.0876493
  23.8100113  14.1611673  42.7946493  24.6430113  13.1631673  42.3586493
  24.3010113  13.5671673  42.9366493  14.2040113  12.3151673  38.7586493
  14.7560113  12.8841673  39.1226493  13.9720113  11.8001673  39.4236493
  14.2510113  12.3231673  38.9106493  18.4080113  11.3151673  45.8476493
  18.8750113  11.6041673  46.5256493  18.9800113  10.8371673  45.3936493
  18.5620113  11.2871673  45.8806493  26.8440113   3.3291673  43.5846493
  27.1880113   3.4811673  44.3716493  26.3910113   2.5911673  43.6976493
  26.8280113   3.2421673  43.7176493  14.0340113  10.7641673  36.3866493
  14.7900113  10.3321673  36.4446493  14.0490113  11.2961673  37.0776493
  14.1480113  10.7791673  36.4976493  14.9740113   8.9851673  44.3916493
  15.4050113   8.8561673  43.6446493  14.7690113   9.8331673  44.3656493
  15.0070113   9.0911673  44.2776493  21.3200113   2.5491673  38.0416493
  21.3180113   2.4321673  37.1766493  21.1390113   3.3971673  38.1336493
  21.2930113   2.6571673  37.9276493  30.3740113  14.9761673  49.5386493
  29.7030113  15.4901673  49.7566493  30.4370113  15.0761673  48.6746493
  30.2840113  15.0671673  49.4436493  19.0580113  12.5011673  42.6736493
  19.1840113  13.3441673  42.8606493  19.7260113  12.1021673  43.0696493
  19.1760113  12.5671673  42.7596493  17.1880113   5.9841673  52.5356493
  16.6520113   5.4781673  53.0036493  17.2080113   5.5941673  51.7556493
  17.1110113   5.8511673  52.4896493  17.6730113   5.3811673  37.6756493
  17.5450113   4.9331673  38.4136493  17.0910113   5.0391673  37.1236493
  17.5680113   5.2641673  37.7036493  17.8400113   7.2111673  44.2746493
  17.0590113   7.1521673  43.8916493  17.9120113   6.4591673  44.7116493
  17.7350113   7.0921673  44.2826493  18.2700113   6.9481673  47.7426493
  18.2950113   6.2731673  47.1916493  17.6240113   7.4441673  47.4306493
  18.1790113   6.9211673  47.6156493  28.1650113   4.6611673  46.1386493
  27.5030113   4.9891673  46.6016493  28.3520113   5.2951673  45.5696493
  28.0950113   4.8031673  46.1226493  22.3700113  15.7251673  47.1346493
  22.0930113  15.0841673  46.6116493  22.1620113  16.4511673  46.6966493
  22.2990113  15.7381673  46.9926493  26.3580113   2.6301673  39.6496493
  26.8480113   3.3471673  39.5726493  25.5680113   2.8911673  39.3866493
  26.3140113   2.7741673  39.5996493  16.0690113   8.3031673  53.3016493
  16.0320113   8.8041673  52.5876493  16.4000113   7.5511673  53.0066493
  16.1120113   8.2651673  53.1526493  27.6720113  10.5081673  51.5596493
  28.1560113  11.2261673  51.6576493  28.0660113  10.0811673  50.9086493
  27.8020113  10.5511673  51.4776493  21.9680113  13.3531673  52.7366493
  22.3220113  13.1751673  53.5136493  21.5320113  12.6241673  52.5376493
  21.9560113  13.2191673  52.8226493  22.9400113   4.1001673  45.3746493
  23.4200113   4.7991673  45.5826493  23.3130113   3.4531673  45.8256493
  23.0660113   4.1081673  45.4716493  25.1290113   7.2691673  37.6486493
  25.1210113   7.9911673  37.1586493  24.4900113   7.4041673  38.2256493
  25.0340113   7.3961673  37.6616493  30.1010113  11.1391673  41.6296493
  30.4570113  10.7891673  42.3446493  30.0930113  10.4781673  41.0596493
  30.1530113  10.9891673  41.6506493  26.1460113  14.2051673  45.4736493
  25.5430113  13.9091673  44.9166493  26.6910113  14.6571673  44.9646493
  26.1370113  14.2281673  45.3156493  26.1590113  11.0561673  44.8736493
  25.3620113  11.2801673  45.1476493  26.4170113  10.4621673  45.4586493
  26.0790113  11.0011673  45.0006493  20.0510113  15.8681673  39.3216493
  19.9040113  15.0921673  39.6926493  20.7400113  15.7211673  38.8066493
  20.1310113  15.7311673  39.3006493  22.3430113  15.3841673  37.7236493
  22.9650113  15.5471673  38.3136493  22.3790113  16.0751673  37.1916493
  22.4400113  15.5101673  37.7326493  29.4190113   9.0541673  49.7196493
  29.4740113   9.1791673  48.8576493  30.1720113   9.3741673  50.0216493
  29.5380113   9.1191673  49.6366493  25.6100113  14.4031673  53.9966493
  25.7740113  14.6861673  54.8056493  25.8730113  15.0641673  53.4916493
  25.6730113  14.5431673  54.0416493  16.8440113   7.9181673  38.5526493
  17.1680113   7.1391673  38.3306493  17.4900113   8.2861673  39.0076493
  16.9870113   7.8571673  38.5866493  25.1500113   8.8601673  49.3196493
  24.9950113   9.4701673  49.9236493  25.6840113   8.3021673  49.7256493
  25.2060113   8.8681673  49.4686493  23.5340113   7.2601673  39.9776493
  23.5930113   7.9101673  40.5566493  23.3450113   6.5641673  40.4686493
  23.5150113   7.2531673  40.1356493  28.7600113  11.5891673  45.8466493
  28.2810113  11.8871673  45.1806493  28.4040113  10.8131673  46.0246493
  28.6370113  11.5181673  45.7746493  18.0300113   1.7771673  36.4896493
  17.5190113   1.8301673  35.7836493  18.8140113   2.0171673  36.1936493
  18.0700113   1.8201673  36.3416493  22.7570113   9.3071673  44.4086493
  21.9100113   9.1131673  44.4896493  23.0810113   9.1421673  45.2016493
  22.6790113   9.2541673  44.5376493  19.5090113  16.0371673  35.2946493
  19.9480113  15.3401673  35.5826493  19.7160113  16.6611673  35.8676493
  19.6050113  16.0261673  35.4216493  16.6050113   9.0001673  46.7246493
  17.3270113   9.4881673  46.6876493  16.3350113   8.9701673  45.8956493
  16.6720113   9.0681673  46.5966493  19.8350113   4.1711673  43.4596493
  20.6810113   3.9811673  43.5576493  19.4650113   3.3941673  43.3216493
  19.9050113   4.0281673  43.4536493  32.4520113  15.7551673  37.7866493
  33.1460113  15.2881673  37.5386493  31.9130113  15.1571673  38.1236493
  32.4750113  15.5971673  37.7996493  14.6560113   5.5091673  40.1146493
  15.1450113   5.2171673  40.7756493  14.7850113   4.9161673  39.4876493
  14.7470113   5.3781673  40.1196493  29.6910113   8.5311673  46.9656493
  29.6840113   7.7551673  47.3636493  28.8500113   8.7651673  46.9586493
  29.5660113   8.4511673  47.0236493  19.1810113   6.9431673  35.6006493
  18.5710113   6.5381673  36.0746493  18.7950113   7.0611673  34.8276493
  19.0340113   6.9001673  35.5566493  16.0000113  10.0521673  51.0026493
  15.5790113   9.5341673  50.4416493  15.6480113  10.8381673  50.8596493
  15.8860113  10.0921673  50.8986493  30.9470113   8.6021673  44.4026493
  30.6610113   9.0031673  45.1226493  31.8070113   8.5401673  44.5296493
  31.0320113   8.6521673  44.5276493  20.6360113   5.4041673  38.3106493
  20.9080113   6.2301673  38.3776493  19.7730113   5.4791673  38.2146493
  20.5490113   5.5371673  38.3056493  28.6090113   2.5261673  52.9426493
  28.0840113   2.9851673  53.4666493  28.2480113   1.7311673  52.9366493
  28.4780113   2.4761673  53.0186493  32.0780113  14.2351673  44.9316493
  32.3680113  14.4921673  44.1506493  32.7730113  14.3311673  45.4506493
  32.2240113  14.2871673  44.8926493  27.1010113   6.0951673  53.0186493
  27.1740113   6.1991673  53.8816493  26.4670113   6.6531673  52.7976493
  27.0180113   6.1931673  53.1136493  29.3690113   6.4141673  51.3836493
  29.6880113   7.2001673  51.5866493  28.9990113   6.1441673  52.1266493
  29.3620113   6.4901673  51.5236493  28.6830113  12.8381673  36.9136493
  29.0170113  12.0321673  36.9486493  27.9280113  12.7661673  37.3436493
  28.6210113  12.7081673  36.9826493  29.1650113   4.6721673  42.5726493
  28.4200113   4.3491673  42.8906493  29.1670113   5.4981673  42.8526493
  29.0550113   4.7461673  42.6606493  32.0670113   6.9561673  54.1186493
  32.0150113   6.6151673  53.3176493  32.8040113   7.4231673  54.0966493
  32.1680113   6.9751673  53.9966493  31.6050113  10.6321673  50.3246493
  32.2330113  10.0831673  50.0686493  31.5440113  11.1971673  49.6626493
  31.6890113  10.6351673  50.1886493  26.0570113  10.7131673  36.3166493
  26.7410113  10.1991673  36.1476493  25.6400113  10.7591673  35.5516493
  26.0960113  10.6441673  36.1786493  20.7390113  11.8631673  47.6206493
  20.4410113  12.4551673  48.1876493  20.7940113  12.3051673  46.8716493
  20.7030113  12.0161673  47.5936493  18.7180113  10.8131673  51.0186493
  17.9120113  10.5231673  51.1856493  18.6290113  11.6811673  51.0246493
  18.5860113  10.8981673  51.0436493  23.2550113   8.2861673  47.1116493
  23.7310113   8.6601673  47.7396493  22.4320113   8.4201673  47.3706493
  23.2040113   8.3611673  47.2426493  19.9650113   3.8891673  49.8526493
  20.1260113   3.1451673  50.2796493  19.9200113   3.6401673  49.0176493
  19.9820113   3.7421673  49.7926493  22.5190113  15.6791673  42.3396493
  23.0650113  16.3581673  42.3936493  22.1690113  15.7611673  41.5446493
  22.5480113  15.7921673  42.2296493  20.7020113  13.9071673  45.7286493
  20.0780113  14.4891673  45.5466493  20.9500113  13.6211673  44.9426493
  20.6460113  13.9511673  45.5856493  25.0110113  10.5411673  52.7176493
  25.7680113  10.8271673  52.3916493  24.4640113  10.5931673  52.0396493
  25.0420113  10.5911673  52.5686493  28.9200113  13.0911673  51.2216493
  29.2660113  13.3611673  51.9756493  29.2140113  13.6731673  50.6416493
  29.0150113  13.2171673  51.2476493  30.7830113   5.2371673  36.5606493
  31.1610113   5.9141673  36.1606493  29.9410113   5.4611673  36.5916493
  30.7140113   5.3701673  36.5056493  22.2960113   8.6831673  35.6436493
  21.4910113   8.5061673  35.3586493  22.2630113   9.5341673  35.8356493
  22.1720113   8.7821673  35.6306493  18.2260113   4.7501673  45.7936493
  18.6660113   4.6471673  45.0476493  18.7710113   4.4371673  46.3986493
  18.3710113   4.6891673  45.7726493  26.2420113   3.8521673  51.3856493
  25.5940113   4.3221673  51.7336493  26.8070113   3.7631673  52.0446493
  26.2300113   3.9081673  51.5346493  25.9300113   5.3891673  47.6836493
  26.2320113   5.8091673  48.3866493  25.9660113   4.5491673  47.9156493
  25.9800113   5.3271673  47.8216493  23.3550113  15.5561673  51.6086493
  23.8330113  14.9561673  51.1926493  23.0040113  15.1131673  52.2736493
  23.3740113  15.4021673  51.6456493  28.4780113   4.8361673  39.9356493
  28.6850113   4.6351673  40.7596493  29.2340113   5.1041673  39.5936493
  28.6200113   4.8461673  40.0066493  29.9430113   8.8631673  39.7896493
  30.4190113   8.1341673  39.7416493  29.1220113   8.5771673  39.7136493
  29.8920113   8.7131673  39.7706493  23.4140113  10.7751673  50.6286493
  22.6190113  10.7111673  50.9796493  23.4850113  11.6221673  50.4336493
  23.3070113  10.8901673  50.6516493  19.2440113  16.9821673  45.9456493
  19.2550113  17.0411673  46.8156493  18.8190113  16.2351673  45.7956493
  19.1830113  16.8801673  46.0516493  17.4020113   2.8771673  39.1006493
  17.5280113   2.5481673  38.3026493  16.5900113   2.6281673  39.2996493
  17.3010113   2.7921673  39.0126493  26.1590113  10.0301673  42.1446493
  26.2350113  10.3711673  42.9436493  26.3280113   9.1831673  42.2656493
  26.1950113   9.9551673  42.2806493  23.6810113   9.3041673  41.7096493
  23.3830113   8.9891673  42.4666493  24.3760113   9.7771673  41.9446493
  23.7400113   9.3271673  41.8566493  23.9030113  13.4221673  49.7366493
  24.5900113  13.3081673  50.2616493  24.0370113  14.2131673  49.3926493
  24.0240113  13.5221673  49.7636493  32.0790113   6.0311673  51.5476493
  31.2240113   5.9091673  51.6736493  32.2320113   5.6361673  50.7846493
  31.9750113   5.9541673  51.4536493  26.5920113   6.6961673  50.1236493
  26.3370113   5.9771673  50.5456493  27.4130113   6.8121673  50.3936493
  26.6760113   6.6071673  50.2256493  16.0080113  16.4801673  51.3876493
  15.3540113  15.9111673  51.4856493  15.6330113  17.2531673  51.5386493
  15.8560113  16.5101673  51.4246493  24.5260113   7.8861673  53.3106493
  24.8490113   8.5721673  52.8786493  23.8220113   8.2091673  53.7126493
  24.4690113   8.0351673  53.3056493  27.6100113  16.2601673  44.2396493
  27.1590113  16.9031673  44.6186493  28.3180113  16.1811673  44.7446493
  27.6480113  16.3431673  44.3706493  24.3110113  11.3501673  47.1696493
  23.6170113  11.7521673  47.5126493  24.9880113  11.7831673  47.5086493
  24.3080113  11.4731673  47.2706493  29.6880113  13.9431673  53.7496493
  30.4640113  13.5531673  53.8326493  29.2190113  13.6071673  54.4046493
  29.7330113  13.8361673  53.8586493  17.3790113   4.8881673  49.5166493
  17.7540113   5.5071673  49.0296493  18.0530113   4.4141673  49.8016493
  17.5340113   4.9101673  49.4866493  15.1540113   3.3361673  48.7916493
  15.2310113   3.1671673  47.9386493  15.9000113   3.7421673  48.9886493
  15.2750113   3.3711673  48.6946493  30.7130113   5.9761673  39.2316493
  30.8160113   5.9181673  38.3676493  31.4540113   5.6441673  39.5496493
  30.8380113   5.9191673  39.1506493  24.6330113  12.9411673  40.3386493
  24.4280113  13.7741673  40.1796493  23.8580113  12.5591673  40.4606493
  24.4880113  13.0081673  40.3336493  29.8150113   6.1221673  48.5876493
  29.8130113   5.2591673  48.7116493  29.8820113   6.4461673  49.3946493
  29.8250113   6.0421673  48.7246493  14.5510113   8.5621673  49.0156493
  14.8710113   8.7811673  48.2346493  14.4510113   7.6971673  48.9606493
  14.5830113   8.4671673  48.8926493  16.0070113   4.4981673  35.6336493
  15.3350113   4.5121673  36.1896493  16.1020113   3.6501673  35.4496493
  15.9220113   4.3751673  35.6886493  19.9950113  13.2031673  36.7476493
  20.4360113  13.2831673  37.4956493  19.1900113  12.9871673  37.0056493
  19.9410113  13.1831673  36.8966493  19.3140113   7.8541673  50.4006493
  18.9180113   8.6281673  50.4756493  18.9080113   7.4811673  49.7246493
  19.1960113   7.9131673  50.3116493  28.5900113   6.9081673  44.5146493
  29.2560113   7.4491673  44.6746493  28.2450113   7.2191673  43.7756493
  28.6370113   7.0341673  44.4296493  28.9030113  14.9741673  40.3216493
  28.7290113  14.3201673  40.8716493  29.6160113  14.7031673  39.8986493
  28.9830113  14.8371673  40.3406493  17.3240113  12.2731673  37.3486493
  17.0800113  11.9661673  38.1286493  17.2910113  11.5701673  36.8326493
  17.2830113  12.1241673  37.3876493  20.1430113  10.5181673  36.0916493
  19.3250113  10.2501673  36.2316493  20.1150113  11.3701673  36.2766493
  20.0180113  10.6051673  36.1396493  26.5780113  12.4271673  48.0126493
  26.7840113  12.7281673  48.8046493  26.5170113  13.1491673  47.5276493
  26.5990113  12.5781673  48.0576493  26.1120113  16.6411673  52.2586493
  25.3590113  16.6231673  51.8176493  26.2800113  17.4931673  52.3426493
  26.0260113  16.7641673  52.2056493  21.3490113   5.9081673  51.4286493
  21.0270113   5.3321673  50.8586493  20.9900113   6.6631673  51.1826493
  21.2490113   5.9341673  51.3086493  31.3900113  11.0661673  47.4706493
  31.3580113  10.2041673  47.3356493  30.6970113  11.3681673  47.0366493
  31.2830113  10.9831673  47.3866493  19.7840113  16.2641673  51.6766493
  19.8250113  16.3901673  52.5396493  20.4350113  15.7041673  51.5206493
  19.8860113  16.2001673  51.7816493  29.4950113  14.3261673  46.2676493
  30.0220113  14.2431673  45.5766493  29.1040113  13.5481673  46.3216493
  29.5150113  14.1991673  46.1736493  17.3770113  14.6471673  53.0366493
  17.9720113  15.0781673  53.5086493  17.0130113  15.2711673  52.5476493
  17.4110113  14.8031673  53.0336493  25.3680113   5.5781673  42.9686493
  25.9190113   4.9711673  43.2686493  24.9430113   5.8411673  43.6836493
  25.3870113   5.5271673  43.1176493  15.6160113   4.2281673  42.4546493
  15.2480113   4.5301673  43.1856493  16.1500113   3.5991673  42.7386493
  15.6400113   4.1801673  42.6046493  15.3040113  12.6361673  49.9656493
  14.7300113  13.0521673  50.4746493  16.0370113  13.1011673  50.0606493
  15.3280113  12.7661673  50.0546493  27.3380113   7.4091673  39.5306493
  27.4060113   6.5591673  39.7116493  26.5150113   7.4951673  39.2526493
  27.2260113   7.2961673  39.5166493  17.0900113  15.9031673  38.7406493
  16.9450113  16.0591673  37.8946493  17.9560113  15.9821673  38.8186493
  17.1970113  15.9381673  38.6276493  21.2570113   8.3001673  38.4686493
  21.3570113   8.4391673  37.6136493  22.0750113   8.2401673  38.7646493
  21.3920113   8.3111673  38.3856493  30.4170113  16.3641673  35.9486493
  31.0540113  16.2301673  36.5296493  30.0760113  15.5701673  35.8316493
  30.4610113  16.2271673  36.0166493  30.6120113   8.7821673  52.6816493
  31.2460113   8.6121673  53.2556493  31.0290113   9.1851673  52.0296493
  30.7670113   8.8171673  52.6706493  26.4920113  12.6291673  38.2706493
  26.2410113  12.5011673  39.0966493  26.1750113  11.9341673  37.8496493
  26.4080113  12.5081673  38.3306493  31.2370113   3.3461673  53.4196493
  31.0410113   3.9901673  53.9746493  30.5150113   2.8561673  53.4116493
  31.1020113   3.3691673  53.5006493  31.1360113   4.2871673  46.3906493
  30.3030113   4.5371673  46.3186493  31.0800113   3.4471673  46.6196493
  31.0050113   4.2001673  46.4136493  28.0230113   8.8931673  54.0366493
  28.8940113   8.8571673  54.0006493  27.8040113   9.3131673  53.3046493
  28.1200113   8.9491673  53.9236493  17.7770113  14.7181673  45.2176493
  17.6980113  13.9081673  44.9016493  17.3330113  15.2051673  44.6456493
  17.7000113  14.6701673  45.0866493  23.3780113  10.8371673  37.7006493
  24.0950113  10.4901673  37.3446493  23.3440113  11.6371673  37.3526493
  23.4790113  10.9041673  37.5966493  15.3490113  16.9621673  48.7986493
  15.8420113  16.9061673  49.5166493  15.5370113  16.2291673  48.3636493
  15.4500113  16.8451673  48.8406493  24.5960113   6.3941673  26.6104083
  24.0720113   6.9901673  26.9734083  24.9930113   6.0261673  27.2944083
  24.5770113   6.4281673  26.7654083  14.4650113  10.5341673  22.0664083
  14.0240113  10.6521673  22.8094083  14.1820113   9.7591673  21.7814083
  14.3580113  10.4371673  22.1344083  30.7400113  13.8351673  19.5814083
  31.4410113  13.3161673  19.5774083  30.1530113  13.3901673  19.1124083
  30.7570113  13.6921673  19.5114083  14.2080113   4.3261673  18.5734083
  13.4300113   4.4881673  18.2134083  14.2470113   3.4551673  18.5954083
  14.0990113   4.2211673  18.5234083  17.3470113   9.5891673  17.2454083
  16.9550113   9.2181673  16.5594083  17.2670113   8.9911673  17.8744083
  17.2770113   9.4461673  17.2364083  27.2670113   7.4611673  23.2864083
  27.3470113   7.4651673  22.4174083  26.6830113   6.8291673  23.4354083
  27.1920113   7.3681673  23.1804083  16.9740113  11.2301673  21.1454083
  17.5820113  11.0601673  21.7484083  16.2230113  11.0901673  21.5664083
  16.9530113  11.1841673  21.2964083  15.8650113  14.3211673  17.2224083
  16.3320113  14.4051673  16.4904083  16.3200113  13.7431673  17.6914083
  16.0010113  14.2481673  17.1834083  14.4050113  13.2691673  28.3214083
  14.5340113  12.9891673  29.1374083  13.7950113  12.7281673  28.0124083
  14.3340113  13.1481673  28.3964083  20.9790113  10.7941673  33.3884083
  20.7430113  10.7911673  34.2284083  20.2310113  10.6461673  32.9644083
  20.8330113  10.7711673  33.4494083  15.8510113   7.7901673  22.5234083
  15.3890113   7.3981673  21.8964083  16.5510113   7.2771673  22.6154083
  15.8860113   7.6571673  22.4444083  20.3590113   3.4001673  27.8704083
  21.0370113   3.4181673  27.3214083  20.3140113   2.5641673  28.1154083
  20.4520113   3.2791673  27.8254083  20.9610113  13.9861673  30.6514083
  21.0990113  14.7461673  30.2444083  21.7520113  13.6211673  30.6784083
  21.0980113  14.0451673  30.5954083  17.8520113   5.8901673  22.5464083
  18.6690113   5.7031673  22.7894083  17.3750113   5.2761673  22.9424083
  17.9020113   5.7721673  22.6414083  22.0560113  11.8711673  25.1564083
  22.4040113  11.0721673  25.1864083  22.7210113  12.3751673  24.9014083
  22.2060113  11.8271673  25.1234083  22.1130113  11.3201673  21.3674083
  22.4440113  10.6761673  21.8534083  22.3530113  11.1091673  20.5564083
  22.1970113  11.1941673  21.3194083  24.0810113   5.4511673  32.7064083
  23.2330113   5.3521673  32.5284083  24.1100113   6.1961673  33.1604083
  23.9600113   5.5471673  32.7474083  26.1010113   3.0521673  16.3344083
  25.6510113   3.7331673  16.6414083  26.2150113   2.5481673  17.0374083
  26.0520113   3.0781673  16.4834083  14.3070113   5.5511673  25.5364083
  14.0510113   6.3821673  25.4614083  13.6430113   5.1681673  25.9534083
  14.1710113   5.6171673  25.5874083  14.2170113  15.2611673  23.4364083
  13.6250113  15.8191673  23.1234083  14.6430113  14.9921673  22.7244083
  14.1930113  15.3031673  23.2854083  20.0570113  13.1051673  20.9164083
  19.4780113  12.8301673  21.5084083  20.6810113  12.4961673  20.9414083
  20.0640113  12.9751673  21.0074083  26.2000113  15.3931673  18.4384083
  26.9270113  15.8651673  18.5404083  26.4290113  14.5991673  18.7184083
  26.3420113  15.3461673  18.4954083  24.3680113  15.7851673  20.4284083
  24.5820113  16.3121673  21.0904083  25.1350113  15.6111673  20.0494083
  24.5130113  15.8371673  20.4704083  20.6420113   2.5011673  35.3254083
  20.7590113   2.0471673  34.5894083  20.9300113   3.2991673  35.1224083
  20.7020113   2.5521673  35.1864083  15.7620113  13.9311673  21.3674083
  16.4180113  13.3561673  21.3824083  16.1510113  14.6801673  21.1464083
  15.9170113  13.9561673  21.3374083  31.4950113   3.0251673  22.6294083
  31.1490113   3.7031673  23.0554083  30.8590113   2.4271673  22.6454083
  31.3500113   3.0371673  22.6944083  26.8070113  15.7951673  28.7334083
  27.5510113  16.2511673  28.7234083  26.6860113  15.5811673  27.8964083
  26.8990113  15.8311673  28.6084083  16.5800113  12.4181673  24.8674083
  17.0030113  12.0621673  24.1934083  16.9040113  11.9961673  25.5594083
  16.6900113  12.3031673  24.8704083  19.8110113  15.2701673  24.1634083
  20.6550113  15.3741673  23.9684083  19.5140113  16.0881673  24.2314083
  19.8920113  15.4061673  24.1444083  23.6180113   4.6671673  22.2504083
  23.9050113   4.4351673  21.4604083  24.3500113   4.7461673  22.7194083
  23.7680113   4.6441673  22.2034083  24.3400113   5.0061673  17.3714083
  24.6210113   5.7941673  17.6204083  23.5640113   5.1711673  17.0084083
  24.2670113   5.1471673  17.3544083  28.3810113  16.9801673  18.8384083
  29.0460113  16.8321673  18.2934083  28.7410113  16.8971673  19.6284083
  28.5330113  16.9461673  18.8744083  18.8090113  16.4891673  29.9034083
  19.1010113  16.4221673  30.7234083  18.1830113  15.8841673  29.8584083
  18.7600113  16.3901673  30.0184083  13.7230113   2.6461673  31.8954083
  13.7190113   3.2331673  32.5414083  14.3170113   2.9581673  31.3384083
  13.8100113   2.7791673  31.9084083  26.0610113  12.9801673  32.4374083
  26.0270113  13.3621673  33.2214083  26.9150113  12.9381673  32.2664083
  26.1820113  13.0301673  32.5284083  23.1990113  13.1771673  17.1874083
  23.0180113  13.7221673  17.8444083  23.9650113  13.4671673  16.8864083
  23.2850113  13.3011673  17.2404083  16.8020113  14.6511673  29.0254083
  16.1040113  14.1431673  29.1514083  17.0620113  14.4461673  28.2174083
  16.7370113  14.5461673  28.9244083  23.9640113   3.4491673  19.5554083
  23.4560113   2.7871673  19.3014083  24.0160113   3.9531673  18.8454083
  23.8970113   3.4261673  19.4134083  24.5130113  16.1441673  29.9354083
  25.2810113  16.0641673  29.5294083  23.9300113  16.0231673  29.2974083
  24.5400113  16.1141673  29.7814083  30.7900113  16.7471673  22.8364083
  30.3350113  17.4641673  23.0374083  30.1760113  16.1761673  22.5944083
  30.6320113  16.7691673  22.8304083  22.5620113   2.7571673  23.9684083
  22.6360113   3.3251673  23.3104083  22.6830113   3.2491673  24.6784083
  22.5900113   2.9141673  23.9764083  27.7870113  12.5921673  22.3804083
  28.4880113  12.1101673  22.5694083  27.1270113  12.0231673  22.4254083
  27.7930113  12.4371673  22.4144083  18.1630113  13.5021673  31.5924083
  19.0040113  13.5651673  31.3704083  18.1260113  13.8991673  32.3684083
  18.2820113  13.5701673  31.6744083  20.1260113   9.0131673  26.3414083
  20.2980113   8.8031673  27.1704083  19.4710113   8.4791673  26.1254083
  20.0550113   8.9031673  26.4324083  26.3540113   2.9271673  29.8564083
  26.2590113   3.2461673  30.6624083  25.7610113   2.2881673  29.8184083
  26.2520113   2.8791673  29.9704083  20.8760113   8.9511673  28.9314083
  20.9290113   9.7981673  29.1334083  20.5910113   8.5811673  29.6684083
  20.8420113   9.0211673  29.0694083  27.0530113   9.6461673  28.0614083
  26.5390113   9.2341673  28.6324083  26.9270113  10.4901673  28.2424083
  26.9590113   9.7101673  28.1724083  13.6970113  13.3221673  35.1424083
  14.4530113  13.6711673  35.4004083  13.8740113  12.4691673  35.0854083
  13.8350113  13.2471673  35.1724083  30.0740113   3.1071673  31.0004083
  30.8460113   2.8821673  31.3374083  29.5990113   3.3241673  31.7004083
  30.1180113   3.1061673  31.1534083  17.6180113   2.3901673  23.9704083
  17.8900113   1.9601673  23.2624083  17.4420113   1.7541673  24.5414083
  17.6320113   2.2331673  23.9504083  30.3060113  10.0851673  18.1884083
  30.4250113   9.7981673  19.0034083  31.1130113  10.1061673  17.8584083
  30.4420113  10.0461673  18.2604083  17.4420113   9.8171673  23.5194083
  18.2930113   9.7371673  23.3464083  17.0850113   9.1351673  23.1074083
  17.5150113   9.7041673  23.4324083  16.2090113  16.5421673  24.7564083
  15.5360113  16.0441673  24.5114083  16.6120113  16.7271673  24.0054083
  16.1690113  16.4961673  24.6094083  15.7590113   3.4921673  27.0524083
  16.6020113   3.7121673  27.0094083  15.3700113   4.0651673  26.5214083
  15.8260113   3.6091673  26.9674083  32.5400113  14.5941673  32.4424083
  31.8580113  14.9041673  31.9954083  32.1710113  14.1361673  33.0874083
  32.3840113  14.5721673  32.4714083  28.2010113   6.6221673  17.7734083
  27.9810113   7.3531673  17.3514083  27.7530113   6.6731673  18.5204083
  28.1020113   6.7371673  17.8214083  19.8100113   9.8241673  21.7544083
  20.5230113  10.3191673  21.8444083  20.0320113   9.2571673  21.1284083
  19.9480113   9.8131673  21.6754083  13.9660113  11.4671673  25.0744083
  13.2990113  11.9551673  25.3504083  14.6460113  12.0121673  25.1034083
  13.9680113  11.6191673  25.1194083  21.6130113   5.1771673  35.1704083
  21.1290113   5.7541673  35.6124083  21.5850113   5.4721673  34.3494083
  21.5370113   5.3061673  35.1144083  32.7110113   5.8611673  29.7824083
  32.9260113   5.0611673  29.5064083  31.8610113   5.9211673  29.5934083
  32.6170113   5.7521673  29.7134083  14.0320113   8.1511673  20.1774083
  13.8470113   7.3121673  20.3294083  14.6910113   8.1151673  19.6074083
  14.1020113   8.0221673  20.1154083  24.3330113  13.5271673  24.0814083
  23.8100113  14.1611673  23.7884083  24.6430113  13.1631673  23.3524083
  24.3010113  13.5671673  23.9304083  14.2040113  12.3151673  19.7524083
  14.7560113  12.8841673  20.1164083  13.9720113  11.8001673  20.4174083
  14.2510113  12.3231673  19.9044083  18.4080113  11.3151673  26.8414083
  18.8750113  11.6041673  27.5194083  18.9800113  10.8371673  26.3874083
  18.5620113  11.2871673  26.8744083  26.8440113   3.3291673  24.5784083
  27.1880113   3.4811673  25.3654083  26.3910113   2.5911673  24.6914083
  26.8280113   3.2421673  24.7114083  14.0340113  10.7641673  17.3804083
  14.7900113  10.3321673  17.4384083  14.0490113  11.2961673  18.0714083
  14.1480113  10.7791673  17.4914083  14.9740113   8.9851673  25.3854083
  15.4050113   8.8561673  24.6384083  14.7690113   9.8331673  25.3594083
  15.0070113   9.0911673  25.2714083  21.3200113   2.5491673  19.0354083
  21.3180113   2.4321673  18.1704083  21.1390113   3.3971673  19.1274083
  21.2930113   2.6571673  18.9214083  30.3740113  14.9761673  30.5324083
  29.7030113  15.4901673  30.7504083  30.4370113  15.0761673  29.6684083
  30.2840113  15.0671673  30.4374083  19.0580113  12.5011673  23.6674083
  19.1840113  13.3441673  23.8544083  19.7260113  12.1021673  24.0634083
  19.1760113  12.5671673  23.7534083  17.1880113   5.9841673  33.5294083
  16.6520113   5.4781673  33.9974083  17.2080113   5.5941673  32.7494083
  17.1110113   5.8511673  33.4834083  17.6730113   5.3811673  18.6694083
  17.5450113   4.9331673  19.4074083  17.0910113   5.0391673  18.1174083
  17.5680113   5.2641673  18.6974083  17.8400113   7.2111673  25.2684083
  17.0590113   7.1521673  24.8854083  17.9120113   6.4591673  25.7054083
  17.7350113   7.0921673  25.2764083  18.2700113   6.9481673  28.7364083
  18.2950113   6.2731673  28.1854083  17.6240113   7.4441673  28.4244083
  18.1790113   6.9211673  28.6094083  28.1650113   4.6611673  27.1324083
  27.5030113   4.9891673  27.5954083  28.3520113   5.2951673  26.5634083
  28.0950113   4.8031673  27.1164083  22.3700113  15.7251673  28.1284083
  22.0930113  15.0841673  27.6054083  22.1620113  16.4511673  27.6904083
  22.2990113  15.7381673  27.9864083  26.3580113   2.6301673  20.6434083
  26.8480113   3.3471673  20.5664083  25.5680113   2.8911673  20.3804083
  26.3140113   2.7741673  20.5934083  16.0690113   8.3031673  34.2954083
  16.0320113   8.8041673  33.5814083  16.4000113   7.5511673  34.0004083
  16.1120113   8.2651673  34.1464083  27.6720113  10.5081673  32.5534083
  28.1560113  11.2261673  32.6514083  28.0660113  10.0811673  31.9024083
  27.8020113  10.5511673  32.4714083  21.9680113  13.3531673  33.7304083
  22.3220113  13.1751673  34.5074083  21.5320113  12.6241673  33.5314083
  21.9560113  13.2191673  33.8164083  22.9400113   4.1001673  26.3684083
  23.4200113   4.7991673  26.5764083  23.3130113   3.4531673  26.8194083
  23.0660113   4.1081673  26.4654083  25.1290113   7.2691673  18.6424083
  25.1210113   7.9911673  18.1524083  24.4900113   7.4041673  19.2194083
  25.0340113   7.3961673  18.6554083  30.1010113  11.1391673  22.6234083
  30.4570113  10.7891673  23.3384083  30.0930113  10.4781673  22.0534083
  30.1530113  10.9891673  22.6444083  26.1460113  14.2051673  26.4674083
  25.5430113  13.9091673  25.9104083  26.6910113  14.6571673  25.9584083
  26.1370113  14.2281673  26.3094083  26.1590113  11.0561673  25.8674083
  25.3620113  11.2801673  26.1414083  26.4170113  10.4621673  26.4524083
  26.0790113  11.0011673  25.9944083  20.0510113  15.8681673  20.3154083
  19.9040113  15.0921673  20.6864083  20.7400113  15.7211673  19.8004083
  20.1310113  15.7311673  20.2944083  22.3430113  15.3841673  18.7174083
  22.9650113  15.5471673  19.3074083  22.3790113  16.0751673  18.1854083
  22.4400113  15.5101673  18.7264083  29.4190113   9.0541673  30.7134083
  29.4740113   9.1791673  29.8514083  30.1720113   9.3741673  31.0154083
  29.5380113   9.1191673  30.6304083  25.6100113  14.4031673  34.9904083
  25.7740113  14.6861673  35.7994083  25.8730113  15.0641673  34.4854083
  25.6730113  14.5431673  35.0354083  16.8440113   7.9181673  19.5464083
  17.1680113   7.1391673  19.3244083  17.4900113   8.2861673  20.0014083
  16.9870113   7.8571673  19.5804083  25.1500113   8.8601673  30.3134083
  24.9950113   9.4701673  30.9174083  25.6840113   8.3021673  30.7194083
  25.2060113   8.8681673  30.4624083  23.5340113   7.2601673  20.9714083
  23.5930113   7.9101673  21.5504083  23.3450113   6.5641673  21.4624083
  23.5150113   7.2531673  21.1294083  28.7600113  11.5891673  26.8404083
  28.2810113  11.8871673  26.1744083  28.4040113  10.8131673  27.0184083
  28.6370113  11.5181673  26.7684083  18.0300113   1.7771673  17.4834083
  17.5190113   1.8301673  16.7774083  18.8140113   2.0171673  17.1874083
  18.0700113   1.8201673  17.3354083  22.7570113   9.3071673  25.4024083
  21.9100113   9.1131673  25.4834083  23.0810113   9.1421673  26.1954083
  22.6790113   9.2541673  25.5314083  19.5090113  16.0371673  16.2884083
  19.9480113  15.3401673  16.5764083  19.7160113  16.6611673  16.8614083
  19.6050113  16.0261673  16.4154083  16.6050113   9.0001673  27.7184083
  17.3270113   9.4881673  27.6814083  16.3350113   8.9701673  26.8894083
  16.6720113   9.0681673  27.5904083  19.8350113   4.1711673  24.4534083
  20.6810113   3.9811673  24.5514083  19.4650113   3.3941673  24.3154083
  19.9050113   4.0281673  24.4474083  32.4520113  15.7551673  18.7804083
  33.1460113  15.2881673  18.5324083  31.9130113  15.1571673  19.1174083
  32.4750113  15.5971673  18.7934083  14.6560113   5.5091673  21.1084083
  15.1450113   5.2171673  21.7694083  14.7850113   4.9161673  20.4814083
  14.7470113   5.3781673  21.1134083  29.6910113   8.5311673  27.9594083
  29.6840113   7.7551673  28.3574083  28.8500113   8.7651673  27.9524083
  29.5660113   8.4511673  28.0174083  19.1810113   6.9431673  16.5944083
  18.5710113   6.5381673  17.0684083  18.7950113   7.0611673  15.8214083
  19.0340113   6.9001673  16.5504083  16.0000113  10.0521673  31.9964083
  15.5790113   9.5341673  31.4354083  15.6480113  10.8381673  31.8534083
  15.8860113  10.0921673  31.8924083  30.9470113   8.6021673  25.3964083
  30.6610113   9.0031673  26.1164083  31.8070113   8.5401673  25.5234083
  31.0320113   8.6521673  25.5214083  20.6360113   5.4041673  19.3044083
  20.9080113   6.2301673  19.3714083  19.7730113   5.4791673  19.2084083
  20.5490113   5.5371673  19.2994083  28.6090113   2.5261673  33.9364083
  28.0840113   2.9851673  34.4604083  28.2480113   1.7311673  33.9304083
  28.4780113   2.4761673  34.0124083  32.0780113  14.2351673  25.9254083
  32.3680113  14.4921673  25.1444083  32.7730113  14.3311673  26.4444083
  32.2240113  14.2871673  25.8864083  27.1010113   6.0951673  34.0124083
  27.1740113   6.1991673  34.8754083  26.4670113   6.6531673  33.7914083
  27.0180113   6.1931673  34.1074083  29.3690113   6.4141673  32.3774083
  29.6880113   7.2001673  32.5804083  28.9990113   6.1441673  33.1204083
  29.3620113   6.4901673  32.5174083  28.6830113  12.8381673  17.9074083
  29.0170113  12.0321673  17.9424083  27.9280113  12.7661673  18.3374083
  28.6210113  12.7081673  17.9764083  29.1650113   4.6721673  23.5664083
  28.4200113   4.3491673  23.8844083  29.1670113   5.4981673  23.8464083
  29.0550113   4.7461673  23.6544083  32.0670113   6.9561673  35.1124083
  32.0150113   6.6151673  34.3114083  32.8040113   7.4231673  35.0904083
  32.1680113   6.9751673  34.9904083  31.6050113  10.6321673  31.3184083
  32.2330113  10.0831673  31.0624083  31.5440113  11.1971673  30.6564083
  31.6890113  10.6351673  31.1824083  26.0570113  10.7131673  17.3104083
  26.7410113  10.1991673  17.1414083  25.6400113  10.7591673  16.5454083
  26.0960113  10.6441673  17.1724083  20.7390113  11.8631673  28.6144083
  20.4410113  12.4551673  29.1814083  20.7940113  12.3051673  27.8654083
  20.7030113  12.0161673  28.5874083  18.7180113  10.8131673  32.0124083
  17.9120113  10.5231673  32.1794083  18.6290113  11.6811673  32.0184083
  18.5860113  10.8981673  32.0374083  23.2550113   8.2861673  28.1054083
  23.7310113   8.6601673  28.7334083  22.4320113   8.4201673  28.3644083
  23.2040113   8.3611673  28.2364083  19.9650113   3.8891673  30.8464083
  20.1260113   3.1451673  31.2734083  19.9200113   3.6401673  30.0114083
  19.9820113   3.7421673  30.7864083  22.5190113  15.6791673  23.3334083
  23.0650113  16.3581673  23.3874083  22.1690113  15.7611673  22.5384083
  22.5480113  15.7921673  23.2234083  20.7020113  13.9071673  26.7224083
  20.0780113  14.4891673  26.5404083  20.9500113  13.6211673  25.9364083
  20.6460113  13.9511673  26.5794083  25.0110113  10.5411673  33.7114083
  25.7680113  10.8271673  33.3854083  24.4640113  10.5931673  33.0334083
  25.0420113  10.5911673  33.5624083  28.9200113  13.0911673  32.2154083
  29.2660113  13.3611673  32.9694083  29.2140113  13.6731673  31.6354083
  29.0150113  13.2171673  32.2414083  30.7830113   5.2371673  17.5544083
  31.1610113   5.9141673  17.1544083  29.9410113   5.4611673  17.5854083
  30.7140113   5.3701673  17.4994083  22.2960113   8.6831673  16.6374083
  21.4910113   8.5061673  16.3524083  22.2630113   9.5341673  16.8294083
  22.1720113   8.7821673  16.6244083  18.2260113   4.7501673  26.7874083
  18.6660113   4.6471673  26.0414083  18.7710113   4.4371673  27.3924083
  18.3710113   4.6891673  26.7664083  26.2420113   3.8521673  32.3794083
  25.5940113   4.3221673  32.7274083  26.8070113   3.7631673  33.0384083
  26.2300113   3.9081673  32.5284083  25.9300113   5.3891673  28.6774083
  26.2320113   5.8091673  29.3804083  25.9660113   4.5491673  28.9094083
  25.9800113   5.3271673  28.8154083  23.3550113  15.5561673  32.6024083
  23.8330113  14.9561673  32.1864083  23.0040113  15.1131673  33.2674083
  23.3740113  15.4021673  32.6394083  28.4780113   4.8361673  20.9294083
  28.6850113   4.6351673  21.7534083  29.2340113   5.1041673  20.5874083
  28.6200113   4.8461673  21.0004083  29.9430113   8.8631673  20.7834083
  30.4190113   8.1341673  20.7354083  29.1220113   8.5771673  20.7074083
  29.8920113   8.7131673  20.7644083  23.4140113  10.7751673  31.6224083
  22.6190113  10.7111673  31.9734083  23.4850113  11.6221673  31.4274083
  23.3070113  10.8901673  31.6454083  19.2440113  16.9821673  26.9394083
  19.2550113  17.0411673  27.8094083  18.8190113  16.2351673  26.7894083
  19.1830113  16.8801673  27.0454083  17.4020113   2.8771673  20.0944083
  17.5280113   2.5481673  19.2964083  16.5900113   2.6281673  20.2934083
  17.3010113   2.7921673  20.0064083  26.1590113  10.0301673  23.1384083
  26.2350113  10.3711673  23.9374083  26.3280113   9.1831673  23.2594083
  26.1950113   9.9551673  23.2744083  23.6810113   9.3041673  22.7034083
  23.3830113   8.9891673  23.4604083  24.3760113   9.7771673  22.9384083
  23.7400113   9.3271673  22.8504083  23.9030113  13.4221673  30.7304083
  24.5900113  13.3081673  31.2554083  24.0370113  14.2131673  30.3864083
  24.0240113  13.5221673  30.7574083  32.0790113   6.0311673  32.5414083
  31.2240113   5.9091673  32.6674083  32.2320113   5.6361673  31.7784083
  31.9750113   5.9541673  32.4474083  26.5920113   6.6961673  31.1174083
  26.3370113   5.9771673  31.5394083  27.4130113   6.8121673  31.3874083
  26.6760113   6.6071673  31.2194083  16.0080113  16.4801673  32.3814083
  15.3540113  15.9111673  32.4794083  15.6330113  17.2531673  32.5324083
  15.8560113  16.5101673  32.4184083  24.5260113   7.8861673  34.3044083
  24.8490113   8.5721673  33.8724083  23.8220113   8.2091673  34.7064083
  24.4690113   8.0351673  34.2994083  27.6100113  16.2601673  25.2334083
  27.1590113  16.9031673  25.6124083  28.3180113  16.1811673  25.7384083
  27.6480113  16.3431673  25.3644083  24.3110113  11.3501673  28.1634083
  23.6170113  11.7521673  28.5064083  24.9880113  11.7831673  28.5024083
  24.3080113  11.4731673  28.2644083  29.6880113  13.9431673  34.7434083
  30.4640113  13.5531673  34.8264083  29.2190113  13.6071673  35.3984083
  29.7330113  13.8361673  34.8524083  17.3790113   4.8881673  30.5104083
  17.7540113   5.5071673  30.0234083  18.0530113   4.4141673  30.7954083
  17.5340113   4.9101673  30.4804083  15.1540113   3.3361673  29.7854083
  15.2310113   3.1671673  28.9324083  15.9000113   3.7421673  29.9824083
  15.2750113   3.3711673  29.6884083  30.7130113   5.9761673  20.2254083
  30.8160113   5.9181673  19.3614083  31.4540113   5.6441673  20.5434083
  30.8380113   5.9191673  20.1444083  24.6330113  12.9411673  21.3324083
  24.4280113  13.7741673  21.1734083  23.8580113  12.5591673  21.4544083
  24.4880113  13.0081673  21.3274083  29.8150113   6.1221673  29.5814083
  29.8130113   5.2591673  29.7054083  29.8820113   6.4461673  30.3884083
  29.8250113   6.0421673  29.7184083  14.5510113   8.5621673  30.0094083
  14.8710113   8.7811673  29.2284083  14.4510113   7.6971673  29.9544083
  14.5830113   8.4671673  29.8864083  16.0070113   4.4981673  16.6274083
  15.3350113   4.5121673  17.1834083  16.1020113   3.6501673  16.4434083
  15.9220113   4.3751673  16.6824083  19.9950113  13.2031673  17.7414083
  20.4360113  13.2831673  18.4894083  19.1900113  12.9871673  17.9994083
  19.9410113  13.1831673  17.8904083  19.3140113   7.8541673  31.3944083
  18.9180113   8.6281673  31.4694083  18.9080113   7.4811673  30.7184083
  19.1960113   7.9131673  31.3054083  28.5900113   6.9081673  25.5084083
  29.2560113   7.4491673  25.6684083  28.2450113   7.2191673  24.7694083
  28.6370113   7.0341673  25.4234083  28.9030113  14.9741673  21.3154083
  28.7290113  14.3201673  21.8654083  29.6160113  14.7031673  20.8924083
  28.9830113  14.8371673  21.3344083  17.3240113  12.2731673  18.3424083
  17.0800113  11.9661673  19.1224083  17.2910113  11.5701673  17.8264083
  17.2830113  12.1241673  18.3814083  20.1430113  10.5181673  17.0854083
  19.3250113  10.2501673  17.2254083  20.1150113  11.3701673  17.2704083
  20.0180113  10.6051673  17.1334083  26.5780113  12.4271673  29.0064083
  26.7840113  12.7281673  29.7984083  26.5170113  13.1491673  28.5214083
  26.5990113  12.5781673  29.0514083  26.1120113  16.6411673  33.2524083
  25.3590113  16.6231673  32.8114083  26.2800113  17.4931673  33.3364083
  26.0260113  16.7641673  33.1994083  21.3490113   5.9081673  32.4224083
  21.0270113   5.3321673  31.8524083  20.9900113   6.6631673  32.1764083
  21.2490113   5.9341673  32.3024083  31.3900113  11.0661673  28.4644083
  31.3580113  10.2041673  28.3294083  30.6970113  11.3681673  28.0304083
  31.2830113  10.9831673  28.3804083  19.7840113  16.2641673  32.6704083
  19.8250113  16.3901673  33.5334083  20.4350113  15.7041673  32.5144083
  19.8860113  16.2001673  32.7754083  29.4950113  14.3261673  27.2614083
  30.0220113  14.2431673  26.5704083  29.1040113  13.5481673  27.3154083
  29.5150113  14.1991673  27.1674083  17.3770113  14.6471673  34.0304083
  17.9720113  15.0781673  34.5024083  17.0130113  15.2711673  33.5414083
  17.4110113  14.8031673  34.0274083  25.3680113   5.5781673  23.9624083
  25.9190113   4.9711673  24.2624083  24.9430113   5.8411673  24.6774083
  25.3870113   5.5271673  24.1114083  15.6160113   4.2281673  23.4484083
  15.2480113   4.5301673  24.1794083  16.1500113   3.5991673  23.7324083
  15.6400113   4.1801673  23.5984083  15.3040113  12.6361673  30.9594083
  14.7300113  13.0521673  31.4684083  16.0370113  13.1011673  31.0544083
  15.3280113  12.7661673  31.0484083  27.3380113   7.4091673  20.5244083
  27.4060113   6.5591673  20.7054083  26.5150113   7.4951673  20.2464083
  27.2260113   7.2961673  20.5104083  17.0900113  15.9031673  19.7344083
  16.9450113  16.0591673  18.8884083  17.9560113  15.9821673  19.8124083
  17.1970113  15.9381673  19.6214083  21.2570113   8.3001673  19.4624083
  21.3570113   8.4391673  18.6074083  22.0750113   8.2401673  19.7584083
  21.3920113   8.3111673  19.3794083  30.4170113  16.3641673  16.9424083
  31.0540113  16.2301673  17.5234083  30.0760113  15.5701673  16.8254083
  30.4610113  16.2271673  17.0104083  30.6120113   8.7821673  33.6754083
  31.2460113   8.6121673  34.2494083  31.0290113   9.1851673  33.0234083
  30.7670113   8.8171673  33.6644083  26.4920113  12.6291673  19.2644083
  26.2410113  12.5011673  20.0904083  26.1750113  11.9341673  18.8434083
  26.4080113  12.5081673  19.3244083  31.2370113   3.3461673  34.4134083
  31.0410113   3.9901673  34.9684083  30.5150113   2.8561673  34.4054083
  31.1020113   3.3691673  34.4944083  31.1360113   4.2871673  27.3844083
  30.3030113   4.5371673  27.3124083  31.0800113   3.4471673  27.6134083
  31.0050113   4.2001673  27.4074083  28.0230113   8.8931673  35.0304083
  28.8940113   8.8571673  34.9944083  27.8040113   9.3131673  34.2984083
  28.1200113   8.9491673  34.9174083  17.7770113  14.7181673  26.2114083
  17.6980113  13.9081673  25.8954083  17.3330113  15.2051673  25.6394083
  17.7000113  14.6701673  26.0804083  23.3780113  10.8371673  18.6944083
  24.0950113  10.4901673  18.3384083  23.3440113  11.6371673  18.3464083
  23.4790113  10.9041673  18.5904083  15.3490113  16.9621673  29.7924083
  15.8420113  16.9061673  30.5104083  15.5370113  16.2291673  29.3574083
  15.4500113  16.8451673  29.8344083  24.5960113   6.3941673   7.6041673
  24.0720113   6.9901673   7.9671673  24.9930113   6.0261673   8.2881673
  24.5770113   6.4281673   7.7591673  14.4650113  10.5341673   3.0601673
  14.0240113  10.6521673   3.8031673  14.1820113   9.7591673   2.7751673
  14.3580113  10.4371673   3.1281673  27.2670113   7.4611673   4.2801673
  27.3470113   7.4651673   3.4111673  26.6830113   6.8291673   4.4291673
  27.1920113   7.3681673   4.1741673  16.9740113  11.2301673   2.1391673
  17.5820113  11.0601673   2.7421673  16.2230113  11.0901673   2.5601673
  16.9530113  11.1841673   2.2901673  14.4050113  13.2691673   9.3151673
  14.5340113  12.9891673  10.1311673  13.7950113  12.7281673   9.0061673
  14.3340113  13.1481673   9.3901673  20.9790113  10.7941673  14.3821673
  20.7430113  10.7911673  15.2221673  20.2310113  10.6461673  13.9581673
  20.8330113  10.7711673  14.4431673  15.8510113   7.7901673   3.5171673
  15.3890113   7.3981673   2.8901673  16.5510113   7.2771673   3.6091673
  15.8860113   7.6571673   3.4381673  20.3590113   3.4001673   8.8641673
  21.0370113   3.4181673   8.3151673  20.3140113   2.5641673   9.1091673
  20.4520113   3.2791673   8.8191673  20.9610113  13.9861673  11.6451673
  21.0990113  14.7461673  11.2381673  21.7520113  13.6211673  11.6721673
  21.0980113  14.0451673  11.5891673  17.8520113   5.8901673   3.5401673
  18.6690113   5.7031673   3.7831673  17.3750113   5.2761673   3.9361673
  17.9020113   5.7721673   3.6351673  22.0560113  11.8711673   6.1501673
  22.4040113  11.0721673   6.1801673  22.7210113  12.3751673   5.8951673
  22.2060113  11.8271673   6.1171673  22.1130113  11.3201673   2.3611673
  22.4440113  10.6761673   2.8471673  22.3530113  11.1091673   1.5501673
  22.1970113  11.1941673   2.3131673  24.0810113   5.4511673  13.7001673
  23.2330113   5.3521673  13.5221673  24.1100113   6.1961673  14.1541673
  23.9600113   5.5471673  13.7411673  14.3070113   5.5511673   6.5301673
  14.0510113   6.3821673   6.4551673  13.6430113   5.1681673   6.9471673
  14.1710113   5.6171673   6.5811673  14.2170113  15.2611673   4.4301673
  13.6250113  15.8191673   4.1171673  14.6430113  14.9921673   3.7181673
  14.1930113  15.3031673   4.2791673  20.0570113  13.1051673   1.9101673
  19.4780113  12.8301673   2.5021673  20.6810113  12.4961673   1.9351673
  20.0640113  12.9751673   2.0011673  20.6420113   2.5011673  16.3191673
  20.7590113   2.0471673  15.5831673  20.9300113   3.2991673  16.1161673
  20.7020113   2.5521673  16.1801673  15.7620113  13.9311673   2.3611673
  16.4180113  13.3561673   2.3761673  16.1510113  14.6801673   2.1401673
  15.9170113  13.9561673   2.3311673  31.4950113   3.0251673   3.6231673
  31.1490113   3.7031673   4.0491673  30.8590113   2.4271673   3.6391673
  31.3500113   3.0371673   3.6881673  26.8070113  15.7951673   9.7271673
  27.5510113  16.2511673   9.7171673  26.6860113  15.5811673   8.8901673
  26.8990113  15.8311673   9.6021673  16.5800113  12.4181673   5.8611673
  17.0030113  12.0621673   5.1871673  16.9040113  11.9961673   6.5531673
  16.6900113  12.3031673   5.8641673  19.8110113  15.2701673   5.1571673
  20.6550113  15.3741673   4.9621673  19.5140113  16.0881673   5.2251673
  19.8920113  15.4061673   5.1381673  23.6180113   4.6671673   3.2441673
  23.9050113   4.4351673   2.4541673  24.3500113   4.7461673   3.7131673
  23.7680113   4.6441673   3.1971673  18.8090113  16.4891673  10.8971673
  19.1010113  16.4221673  11.7171673  18.1830113  15.8841673  10.8521673
  18.7600113  16.3901673  11.0121673  13.7230113   2.6461673  12.8891673
  13.7190113   3.2331673  13.5351673  14.3170113   2.9581673  12.3321673
  13.8100113   2.7791673  12.9021673  26.0610113  12.9801673  13.4311673
  26.0270113  13.3621673  14.2151673  26.9150113  12.9381673  13.2601673
  26.1820113  13.0301673  13.5221673  16.8020113  14.6511673  10.0191673
  16.1040113  14.1431673  10.1451673  17.0620113  14.4461673   9.2111673
  16.7370113  14.5461673   9.9181673  24.5130113  16.1441673  10.9291673
  25.2810113  16.0641673  10.5231673  23.9300113  16.0231673  10.2911673
  24.5400113  16.1141673  10.7751673  30.7900113  16.7471673   3.8301673
  30.3350113  17.4641673   4.0311673  30.1760113  16.1761673   3.5881673
  30.6320113  16.7691673   3.8241673  22.5620113   2.7571673   4.9621673
  22.6360113   3.3251673   4.3041673  22.6830113   3.2491673   5.6721673
  22.5900113   2.9141673   4.9701673  27.7870113  12.5921673   3.3741673
  28.4880113  12.1101673   3.5631673  27.1270113  12.0231673   3.4191673
  27.7930113  12.4371673   3.4081673  18.1630113  13.5021673  12.5861673
  19.0040113  13.5651673  12.3641673  18.1260113  13.8991673  13.3621673
  18.2820113  13.5701673  12.6681673  20.1260113   9.0131673   7.3351673
  20.2980113   8.8031673   8.1641673  19.4710113   8.4791673   7.1191673
  20.0550113   8.9031673   7.4261673  26.3540113   2.9271673  10.8501673
  26.2590113   3.2461673  11.6561673  25.7610113   2.2881673  10.8121673
  26.2520113   2.8791673  10.9641673  20.8760113   8.9511673   9.9251673
  20.9290113   9.7981673  10.1271673  20.5910113   8.5811673  10.6621673
  20.8420113   9.0211673  10.0631673  27.0530113   9.6461673   9.0551673
  26.5390113   9.2341673   9.6261673  26.9270113  10.4901673   9.2361673
  26.9590113   9.7101673   9.1661673  13.6970113  13.3221673  16.1361673
  14.4530113  13.6711673  16.3941673  13.8740113  12.4691673  16.0791673
  13.8350113  13.2471673  16.1661673  30.0740113   3.1071673  11.9941673
  30.8460113   2.8821673  12.3311673  29.5990113   3.3241673  12.6941673
  30.1180113   3.1061673  12.1471673  17.6180113   2.3901673   4.9641673
  17.8900113   1.9601673   4.2561673  17.4420113   1.7541673   5.5351673
  17.6320113   2.2331673   4.9441673  17.4420113   9.8171673   4.5131673
  18.2930113   9.7371673   4.3401673  17.0850113   9.1351673   4.1011673
  17.5150113   9.7041673   4.4261673  16.2090113  16.5421673   5.7501673
  15.5360113  16.0441673   5.5051673  16.6120113  16.7271673   4.9991673
  16.1690113  16.4961673   5.6031673  15.7590113   3.4921673   8.0461673
  16.6020113   3.7121673   8.0031673  15.3700113   4.0651673   7.5151673
  15.8260113   3.6091673   7.9611673  32.5400113  14.5941673  13.4361673
  31.8580113  14.9041673  12.9891673  32.1710113  14.1361673  14.0811673
  32.3840113  14.5721673  13.4651673  19.8100113   9.8241673   2.7481673
  20.5230113  10.3191673   2.8381673  20.0320113   9.2571673   2.1221673
  19.9480113   9.8131673   2.6691673  13.9660113  11.4671673   6.0681673
  13.2990113  11.9551673   6.3441673  14.6460113  12.0121673   6.0971673
  13.9680113  11.6191673   6.1131673  21.6130113   5.1771673  16.1641673
  21.1290113   5.7541673  16.6061673  21.5850113   5.4721673  15.3431673
  21.5370113   5.3061673  16.1081673  32.7110113   5.8611673  10.7761673
  32.9260113   5.0611673  10.5001673  31.8610113   5.9211673  10.5871673
  32.6170113   5.7521673  10.7071673  24.3330113  13.5271673   5.0751673
  23.8100113  14.1611673   4.7821673  24.6430113  13.1631673   4.3461673
  24.3010113  13.5671673   4.9241673  18.4080113  11.3151673   7.8351673
  18.8750113  11.6041673   8.5131673  18.9800113  10.8371673   7.3811673
  18.5620113  11.2871673   7.8681673  26.8440113   3.3291673   5.5721673
  27.1880113   3.4811673   6.3591673  26.3910113   2.5911673   5.6851673
  26.8280113   3.2421673   5.7051673  14.9740113   8.9851673   6.3791673
  15.4050113   8.8561673   5.6321673  14.7690113   9.8331673   6.3531673
  15.0070113   9.0911673   6.2651673  30.3740113  14.9761673  11.5261673
  29.7030113  15.4901673  11.7441673  30.4370113  15.0761673  10.6621673
  30.2840113  15.0671673  11.4311673  19.0580113  12.5011673   4.6611673
  19.1840113  13.3441673   4.8481673  19.7260113  12.1021673   5.0571673
  19.1760113  12.5671673   4.7471673  17.1880113   5.9841673  14.5231673
  16.6520113   5.4781673  14.9911673  17.2080113   5.5941673  13.7431673
  17.1110113   5.8511673  14.4771673  17.8400113   7.2111673   6.2621673
  17.0590113   7.1521673   5.8791673  17.9120113   6.4591673   6.6991673
  17.7350113   7.0921673   6.2701673  18.2700113   6.9481673   9.7301673
  18.2950113   6.2731673   9.1791673  17.6240113   7.4441673   9.4181673
  18.1790113   6.9211673   9.6031673  28.1650113   4.6611673   8.1261673
  27.5030113   4.9891673   8.5891673  28.3520113   5.2951673   7.5571673
  28.0950113   4.8031673   8.1101673  22.3700113  15.7251673   9.1221673
  22.0930113  15.0841673   8.5991673  22.1620113  16.4511673   8.6841673
  22.2990113  15.7381673   8.9801673  16.0690113   8.3031673  15.2891673
  16.0320113   8.8041673  14.5751673  16.4000113   7.5511673  14.9941673
  16.1120113   8.2651673  15.1401673  27.6720113  10.5081673  13.5471673
  28.1560113  11.2261673  13.6451673  28.0660113  10.0811673  12.8961673
  27.8020113  10.5511673  13.4651673  21.9680113  13.3531673  14.7241673
  22.3220113  13.1751673  15.5011673  21.5320113  12.6241673  14.5251673
  21.9560113  13.2191673  14.8101673  22.9400113   4.1001673   7.3621673
  23.4200113   4.7991673   7.5701673  23.3130113   3.4531673   7.8131673
  23.0660113   4.1081673   7.4591673  30.1010113  11.1391673   3.6171673
  30.4570113  10.7891673   4.3321673  30.0930113  10.4781673   3.0471673
  30.1530113  10.9891673   3.6381673  26.1460113  14.2051673   7.4611673
  25.5430113  13.9091673   6.9041673  26.6910113  14.6571673   6.9521673
  26.1370113  14.2281673   7.3031673  26.1590113  11.0561673   6.8611673
  25.3620113  11.2801673   7.1351673  26.4170113  10.4621673   7.4461673
  26.0790113  11.0011673   6.9881673  29.4190113   9.0541673  11.7071673
  29.4740113   9.1791673  10.8451673  30.1720113   9.3741673  12.0091673
  29.5380113   9.1191673  11.6241673  25.6100113  14.4031673  15.9841673
  25.7740113  14.6861673  16.7931673  25.8730113  15.0641673  15.4791673
  25.6730113  14.5431673  16.0291673  25.1500113   8.8601673  11.3071673
  24.9950113   9.4701673  11.9111673  25.6840113   8.3021673  11.7131673
  25.2060113   8.8681673  11.4561673  23.5340113   7.2601673   1.9651673
  23.5930113   7.9101673   2.5441673  23.3450113   6.5641673   2.4561673
  23.5150113   7.2531673   2.1231673  28.7600113  11.5891673   7.8341673
  28.2810113  11.8871673   7.1681673  28.4040113  10.8131673   8.0121673
  28.6370113  11.5181673   7.7621673  22.7570113   9.3071673   6.3961673
  21.9100113   9.1131673   6.4771673  23.0810113   9.1421673   7.1891673
  22.6790113   9.2541673   6.5251673  16.6050113   9.0001673   8.7121673
  17.3270113   9.4881673   8.6751673  16.3350113   8.9701673   7.8831673
  16.6720113   9.0681673   8.5841673  19.8350113   4.1711673   5.4471673
  20.6810113   3.9811673   5.5451673  19.4650113   3.3941673   5.3091673
  19.9050113   4.0281673   5.4411673  29.6910113   8.5311673   8.9531673
  29.6840113   7.7551673   9.3511673  28.8500113   8.7651673   8.9461673
  29.5660113   8.4511673   9.0111673  16.0000113  10.0521673  12.9901673
  15.5790113   9.5341673  12.4291673  15.6480113  10.8381673  12.8471673
  15.8860113  10.0921673  12.8861673  30.9470113   8.6021673   6.3901673
  30.6610113   9.0031673   7.1101673  31.8070113   8.5401673   6.5171673
  31.0320113   8.6521673   6.5151673  28.6090113   2.5261673  14.9301673
  28.0840113   2.9851673  15.4541673  28.2480113   1.7311673  14.9241673
  28.4780113   2.4761673  15.0061673  32.0780113  14.2351673   6.9191673
  32.3680113  14.4921673   6.1381673  32.7730113  14.3311673   7.4381673
  32.2240113  14.2871673   6.8801673  27.1010113   6.0951673  15.0061673
  27.1740113   6.1991673  15.8691673  26.4670113   6.6531673  14.7851673
  27.0180113   6.1931673  15.1011673  29.3690113   6.4141673  13.3711673
  29.6880113   7.2001673  13.5741673  28.9990113   6.1441673  14.1141673
  29.3620113   6.4901673  13.5111673  29.1650113   4.6721673   4.5601673
  28.4200113   4.3491673   4.8781673  29.1670113   5.4981673   4.8401673
  29.0550113   4.7461673   4.6481673  32.0670113   6.9561673  16.1061673
  32.0150113   6.6151673  15.3051673  32.8040113   7.4231673  16.0841673
  32.1680113   6.9751673  15.9841673  31.6050113  10.6321673  12.3121673
  32.2330113  10.0831673  12.0561673  31.5440113  11.1971673  11.6501673
  31.6890113  10.6351673  12.1761673  20.7390113  11.8631673   9.6081673
  20.4410113  12.4551673  10.1751673  20.7940113  12.3051673   8.8591673
  20.7030113  12.0161673   9.5811673  18.7180113  10.8131673  13.0061673
  17.9120113  10.5231673  13.1731673  18.6290113  11.6811673  13.0121673
  18.5860113  10.8981673  13.0311673  23.2550113   8.2861673   9.0991673
  23.7310113   8.6601673   9.7271673  22.4320113   8.4201673   9.3581673
  23.2040113   8.3611673   9.2301673  19.9650113   3.8891673  11.8401673
  20.1260113   3.1451673  12.2671673  19.9200113   3.6401673  11.0051673
  19.9820113   3.7421673  11.7801673  22.5190113  15.6791673   4.3271673
  23.0650113  16.3581673   4.3811673  22.1690113  15.7611673   3.5321673
  22.5480113  15.7921673   4.2171673  20.7020113  13.9071673   7.7161673
  20.0780113  14.4891673   7.5341673  20.9500113  13.6211673   6.9301673
  20.6460113  13.9511673   7.5731673  25.0110113  10.5411673  14.7051673
  25.7680113  10.8271673  14.3791673  24.4640113  10.5931673  14.0271673
  25.0420113  10.5911673  14.5561673  28.9200113  13.0911673  13.2091673
  29.2660113  13.3611673  13.9631673  29.2140113  13.6731673  12.6291673
  29.0150113  13.2171673  13.2351673  18.2260113   4.7501673   7.7811673
  18.6660113   4.6471673   7.0351673  18.7710113   4.4371673   8.3861673
  18.3710113   4.6891673   7.7601673  26.2420113   3.8521673  13.3731673
  25.5940113   4.3221673  13.7211673  26.8070113   3.7631673  14.0321673
  26.2300113   3.9081673  13.5221673  25.9300113   5.3891673   9.6711673
  26.2320113   5.8091673  10.3741673  25.9660113   4.5491673   9.9031673
  25.9800113   5.3271673   9.8091673  23.3550113  15.5561673  13.5961673
  23.8330113  14.9561673  13.1801673  23.0040113  15.1131673  14.2611673
  23.3740113  15.4021673  13.6331673  28.4780113   4.8361673   1.9231673
  28.6850113   4.6351673   2.7471673  29.2340113   5.1041673   1.5811673
  28.6200113   4.8461673   1.9941673  29.9430113   8.8631673   1.7771673
  30.4190113   8.1341673   1.7291673  29.1220113   8.5771673   1.7011673
  29.8920113   8.7131673   1.7581673  23.4140113  10.7751673  12.6161673
  22.6190113  10.7111673  12.9671673  23.4850113  11.6221673  12.4211673
  23.3070113  10.8901673  12.6391673  19.2440113  16.9821673   7.9331673
  19.2550113  17.0411673   8.8031673  18.8190113  16.2351673   7.7831673
  19.1830113  16.8801673   8.0391673  26.1590113  10.0301673   4.1321673
  26.2350113  10.3711673   4.9311673  26.3280113   9.1831673   4.2531673
  26.1950113   9.9551673   4.2681673  23.6810113   9.3041673   3.6971673
  23.3830113   8.9891673   4.4541673  24.3760113   9.7771673   3.9321673
  23.7400113   9.3271673   3.8441673  23.9030113  13.4221673  11.7241673
  24.5900113  13.3081673  12.2491673  24.0370113  14.2131673  11.3801673
  24.0240113  13.5221673  11.7511673  32.0790113   6.0311673  13.5351673
  31.2240113   5.9091673  13.6611673  32.2320113   5.6361673  12.7721673
  31.9750113   5.9541673  13.4411673  26.5920113   6.6961673  12.1111673
  26.3370113   5.9771673  12.5331673  27.4130113   6.8121673  12.3811673
  26.6760113   6.6071673  12.2131673  16.0080113  16.4801673  13.3751673
  15.3540113  15.9111673  13.4731673  15.6330113  17.2531673  13.5261673
  15.8560113  16.5101673  13.4121673  24.5260113   7.8861673  15.2981673
  24.8490113   8.5721673  14.8661673  23.8220113   8.2091673  15.7001673
  24.4690113   8.0351673  15.2931673  27.6100113  16.2601673   6.2271673
  27.1590113  16.9031673   6.6061673  28.3180113  16.1811673   6.7321673
  27.6480113  16.3431673   6.3581673  24.3110113  11.3501673   9.1571673
  23.6170113  11.7521673   9.5001673  24.9880113  11.7831673   9.4961673
  24.3080113  11.4731673   9.2581673  29.6880113  13.9431673  15.7371673
  30.4640113  13.5531673  15.8201673  29.2190113  13.6071673  16.3921673
  29.7330113  13.8361673  15.8461673  17.3790113   4.8881673  11.5041673
  17.7540113   5.5071673  11.0171673  18.0530113   4.4141673  11.7891673
  17.5340113   4.9101673  11.4741673  15.1540113   3.3361673  10.7791673
  15.2310113   3.1671673   9.9261673  15.9000113   3.7421673  10.9761673
  15.2750113   3.3711673  10.6821673  24.6330113  12.9411673   2.3261673
  24.4280113  13.7741673   2.1671673  23.8580113  12.5591673   2.4481673
  24.4880113  13.0081673   2.3211673  29.8150113   6.1221673  10.5751673
  29.8130113   5.2591673  10.6991673  29.8820113   6.4461673  11.3821673
  29.8250113   6.0421673  10.7121673  14.5510113   8.5621673  11.0031673
  14.8710113   8.7811673  10.2221673  14.4510113   7.6971673  10.9481673
  14.5830113   8.4671673  10.8801673  19.3140113   7.8541673  12.3881673
  18.9180113   8.6281673  12.4631673  18.9080113   7.4811673  11.7121673
  19.1960113   7.9131673  12.2991673  28.5900113   6.9081673   6.5021673
  29.2560113   7.4491673   6.6621673  28.2450113   7.2191673   5.7631673
  28.6370113   7.0341673   6.4171673  28.9030113  14.9741673   2.3091673
  28.7290113  14.3201673   2.8591673  29.6160113  14.7031673   1.8861673
  28.9830113  14.8371673   2.3281673  26.5780113  12.4271673  10.0001673
  26.7840113  12.7281673  10.7921673  26.5170113  13.1491673   9.5151673
  26.5990113  12.5781673  10.0451673  26.1120113  16.6411673  14.2461673
  25.3590113  16.6231673  13.8051673  26.2800113  17.4931673  14.3301673
  26.0260113  16.7641673  14.1931673  21.3490113   5.9081673  13.4161673
  21.0270113   5.3321673  12.8461673  20.9900113   6.6631673  13.1701673
  21.2490113   5.9341673  13.2961673  31.3900113  11.0661673   9.4581673
  31.3580113  10.2041673   9.3231673  30.6970113  11.3681673   9.0241673
  31.2830113  10.9831673   9.3741673  19.7840113  16.2641673  13.6641673
  19.8250113  16.3901673  14.5271673  20.4350113  15.7041673  13.5081673
  19.8860113  16.2001673  13.7691673  29.4950113  14.3261673   8.2551673
  30.0220113  14.2431673   7.5641673  29.1040113  13.5481673   8.3091673
  29.5150113  14.1991673   8.1611673  17.3770113  14.6471673  15.0241673
  17.9720113  15.0781673  15.4961673  17.0130113  15.2711673  14.5351673
  17.4110113  14.8031673  15.0211673  25.3680113   5.5781673   4.9561673
  25.9190113   4.9711673   5.2561673  24.9430113   5.8411673   5.6711673
  25.3870113   5.5271673   5.1051673  15.6160113   4.2281673   4.4421673
  15.2480113   4.5301673   5.1731673  16.1500113   3.5991673   4.7261673
  15.6400113   4.1801673   4.5921673  15.3040113  12.6361673  11.9531673
  14.7300113  13.0521673  12.4621673  16.0370113  13.1011673  12.0481673
  15.3280113  12.7661673  12.0421673  30.6120113   8.7821673  14.6691673
  31.2460113   8.6121673  15.2431673  31.0290113   9.1851673  14.0171673
  30.7670113   8.8171673  14.6581673  31.2370113   3.3461673  15.4071673
  31.0410113   3.9901673  15.9621673  30.5150113   2.8561673  15.3991673
  31.1020113   3.3691673  15.4881673  31.1360113   4.2871673   8.3781673
  30.3030113   4.5371673   8.3061673  31.0800113   3.4471673   8.6071673
  31.0050113   4.2001673   8.4011673  28.0230113   8.8931673  16.0241673
  28.8940113   8.8571673  15.9881673  27.8040113   9.3131673  15.2921673
  28.1200113   8.9491673  15.9111673  17.7770113  14.7181673   7.2051673
  17.6980113  13.9081673   6.8891673  17.3330113  15.2051673   6.6331673
  17.7000113  14.6701673   7.0741673  15.3490113  16.9621673  10.7861673
  15.8420113  16.9061673  11.5041673  15.5370113  16.2291673  10.3511673
  15.4500113  16.8451673  10.8281673   5.9221673  54.9124913  78.9581313
   5.6771673  55.4004913  78.2781313   6.7851673  54.8394913  78.8581313
   6.0131673  54.9734913  78.8431313   5.7311673  61.8284913  83.6291313
   5.2071673  62.4244913  83.9921313   6.1281673  61.4604913  84.3131313
   5.7121673  61.8624913  83.7841313  11.8751673  69.2694913  76.6001313
  12.5761673  68.7504913  76.5961313  11.2881673  68.8244913  76.1311313
  11.8921673  69.1264913  76.5301313   8.4021673  62.8954913  80.3051313
   8.4821673  62.8994913  79.4361313   7.8181673  62.2634913  80.4541313
   8.3271673  62.8024913  80.1991313   2.3911673  55.9994913  78.1131313
   2.3211673  56.6764913  77.5671313   3.1321673  55.6114913  77.8641313
   2.4901673  56.0424913  77.9951313   3.1911673  67.3054913  82.1751313
   3.5391673  66.5064913  82.2051313   3.8561673  67.8094913  81.9201313
   3.3411673  67.2614913  82.1421313   3.2481673  66.7544913  78.3861313
   3.5791673  66.1104913  78.8721313   3.4881673  66.5434913  77.5751313
   3.3321673  66.6284913  78.3381313   2.5631673  55.5604913  81.0541313
   2.6361673  56.4204913  81.1831313   2.5251673  55.4854913  80.1861313
   2.5681673  55.6764913  80.9451313   7.2361673  58.4864913  73.3531313
   6.7861673  59.1674913  73.6601313   7.3501673  57.9824913  74.0561313
   7.1871673  58.5124913  73.5021313  12.6301673  58.4594913  79.6481313
  12.2841673  59.1374913  80.0741313  11.9941673  57.8614913  79.6641313
  12.4851673  58.4714913  79.7131313   4.7531673  60.1014913  79.2691313
   5.0401673  59.8694913  78.4791313   5.4851673  60.1804913  79.7381313
   4.9031673  60.0784913  79.2221313   5.4751673  60.4404913  74.3901313
   5.7561673  61.2284913  74.6391313   4.6991673  60.6054913  74.0271313
   5.4021673  60.5814913  74.3731313  12.3051673  56.7824913  85.0171313
  13.0621673  56.8544913  84.5891313  12.3681673  56.0094913  85.4161313
  12.4261673  56.6794913  85.0121313   4.3341673  68.6114913  74.2061313
   4.1531673  69.1564913  74.8631313   5.1001673  68.9014913  73.9051313
   4.4201673  68.7354913  74.2591313   7.8411673  56.5074913  75.2601313
   8.3811673  55.8254913  75.3361313   7.9031673  56.9054913  76.0341313
   7.9301673  56.4654913  75.3861313   5.0991673  58.8834913  76.5741313
   4.5911673  58.2214913  76.3201313   5.1511673  59.3874913  75.8641313
   5.0321673  58.8604913  76.4321313   5.0991673  55.8244913  76.4651313
   4.6441673  55.4224913  75.8391313   5.8721673  55.9794913  76.0901313
   5.1461673  55.7884913  76.3171313   3.6971673  58.1914913  80.9871313
   3.7711673  58.7594913  80.3291313   3.8181673  58.6834913  81.6971313
   3.7251673  58.3484913  80.9951313   8.9221673  68.0264913  79.3991313
   9.6231673  67.5444913  79.5881313   8.2621673  67.4574913  79.4441313
   8.9281673  67.8714913  79.4331313   7.4891673  58.3614913  86.8751313
   7.3941673  58.6804913  87.6811313   6.8961673  57.7224913  86.8371313
   7.3871673  58.3134913  86.9891313   2.0111673  64.3854913  85.9501313
   2.0641673  65.2324913  86.1521313   1.7261673  64.0154913  86.6871313
   1.9771673  64.4554913  86.0881313   8.1881673  65.0804913  85.0801313
   7.6741673  64.6684913  85.6511313   8.0621673  65.9244913  85.2611313
   8.0941673  65.1444913  85.1911313   8.7451673  54.3054913  79.7111313
   8.7941673  53.9874913  80.5221313   9.0681673  53.6614913  79.2181313
   8.8001673  54.1634913  79.7581313  11.4411673  65.5194913  75.2071313
  11.5601673  65.2324913  76.0221313  12.2481673  65.5404913  74.8771313
  11.5771673  65.4804913  75.2791313   9.3361673  62.0564913  74.7921313
   9.1161673  62.7874913  74.3701313   8.8881673  62.1074913  75.5391313
   9.2371673  62.1714913  74.8401313  13.5231673  56.9174913  74.2451313
  12.8611673  56.3494913  74.2681313  13.3301673  57.4294913  73.5651313
  13.3971673  56.9094913  74.1481313  13.8461673  61.2954913  86.8011313
  14.0611673  60.4954913  86.5251313  12.9961673  61.3554913  86.6121313
  13.7521673  61.1864913  86.7321313  11.5251673  56.4754913  76.5241313
  12.2711673  56.0684913  76.7231313  11.7881673  57.1904913  76.0991313
  11.6741673  56.5214913  76.4911313   5.4681673  68.9614913  81.1001313
   4.9451673  69.5954913  80.8071313   5.7781673  68.5974913  80.3711313
   5.4361673  69.0014913  80.9491313   7.9791673  58.7634913  81.5971313
   8.3231673  58.9154913  82.3841313   7.5261673  58.0254913  81.7101313
   7.9631673  58.6764913  81.7301313   2.4551673  57.9834913  76.0541313
   2.4531673  57.8664913  75.1891313   2.2741673  58.8314913  76.1461313
   2.4281673  58.0914913  75.9401313   9.3001673  60.0954913  84.1511313
   8.6381673  60.4234913  84.6141313   9.4871673  60.7294913  83.5821313
   9.2301673  60.2374913  84.1351313   7.4931673  58.0644913  77.6621313
   7.9831673  58.7814913  77.5851313   6.7031673  58.3254913  77.3991313
   7.4491673  58.2084913  77.6121313   4.0751673  59.5344913  83.3871313
   4.5551673  60.2334913  83.5951313   4.4481673  58.8874913  83.8381313
   4.2011673  59.5424913  83.4841313   6.2641673  62.7034913  75.6611313
   6.2561673  63.4254913  75.1711313   5.6251673  62.8384913  76.2381313
   6.1691673  62.8304913  75.6741313  11.2361673  66.5734913  79.6421313
  11.5921673  66.2234913  80.3571313  11.2281673  65.9124913  79.0721313
  11.2881673  66.4234913  79.6631313   7.2941673  66.4904913  82.8861313
   6.4971673  66.7144913  83.1601313   7.5521673  65.8964913  83.4711313
   7.2141673  66.4354913  83.0131313  10.5541673  64.4884913  87.7321313
  10.6091673  64.6134913  86.8701313  11.3071673  64.8084913  88.0341313
  10.6731673  64.5534913  87.6491313   6.2851673  64.2944913  87.3321313
   6.1301673  64.9044913  87.9361313   6.8191673  63.7364913  87.7381313
   6.3411673  64.3024913  87.4811313   4.6691673  62.6944913  77.9901313
   4.7281673  63.3444913  78.5691313   4.4801673  61.9984913  78.4811313
   4.6501673  62.6874913  78.1481313   9.8951673  67.0234913  83.8591313
   9.4161673  67.3214913  83.1931313   9.5391673  66.2474913  84.0371313
   9.7721673  66.9524913  83.7871313   3.8921673  64.7414913  82.4211313
   3.0451673  64.5474913  82.5021313   4.2161673  64.5764913  83.2141313
   3.8141673  64.6884913  82.5501313  10.8261673  63.9654913  84.9781313
  10.8191673  63.1894913  85.3761313   9.9851673  64.1994913  84.9711313
  10.7011673  63.8854913  85.0361313  12.0821673  64.0364913  82.4151313
  11.7961673  64.4374913  83.1351313  12.9421673  63.9744913  82.5421313
  12.1671673  64.0864913  82.5401313   9.8181673  68.2724913  74.9261313
  10.1521673  67.4664913  74.9611313   9.0631673  68.2004913  75.3561313
   9.7561673  68.1424913  74.9951313  10.3001673  60.1064913  80.5851313
   9.5551673  59.7834913  80.9031313  10.3021673  60.9324913  80.8651313
  10.1901673  60.1804913  80.6731313   7.1921673  66.1474913  74.3291313
   7.8761673  65.6334913  74.1601313   6.7751673  66.1934913  73.5641313
   7.2311673  66.0784913  74.1911313   9.2121673  56.4364913  88.0461313
   9.9561673  56.8884913  87.9831313   8.6461673  56.9064913  87.5771313
   9.2391673  56.5734913  87.9681313   4.3901673  63.7204913  85.1241313
   4.8661673  64.0944913  85.7521313   3.5671673  63.8544913  85.3831313
   4.3391673  63.7954913  85.2551313  10.4971673  54.4164913  85.7161313
  10.2171673  55.2414913  85.6721313  11.2131673  54.4694913  86.2121313
  10.5621673  54.5464913  85.7831313   2.8521673  55.1314913  87.7451313
   3.5571673  55.4514913  87.3431313   3.0931673  54.3244913  87.9721313
   2.9911673  55.0594913  87.7191313  11.9181673  60.6714913  74.5731313
  12.2961673  61.3484913  74.1731313  11.0761673  60.8954913  74.6041313
  11.8491673  60.8044913  74.5181313   3.4311673  64.1174913  73.6561313
   2.6261673  63.9404913  73.3711313   3.3981673  64.9684913  73.8481313
   3.3071673  64.2164913  73.6431313   7.0651673  60.8234913  85.6961313
   7.3671673  61.2434913  86.3991313   7.1011673  59.9834913  85.9281313
   7.1151673  60.7614913  85.8341313   9.6131673  60.2704913  77.9481313
   9.8201673  60.0694913  78.7721313  10.3691673  60.5384913  77.6061313
   9.7551673  60.2804913  78.0191313   2.9081673  55.1694913  83.8531313
   2.0821673  55.0204913  84.0901313   2.8681673  55.2044913  82.9821313
   2.7801673  55.1524913  83.7591313  10.6351673  56.3534913  79.4221313
   9.9211673  55.8824913  79.5931313  10.4731673  56.6944913  78.6361313
  10.5061673  56.3344913  79.3311313  11.0781673  64.2974913  77.8021313
  11.5541673  63.5684913  77.7541313  10.2571673  64.0114913  77.7261313
  11.0271673  64.1474913  77.7831313   7.2941673  65.4644913  80.1571313
   7.3701673  65.8054913  80.9561313   7.4631673  64.6174913  80.2781313
   7.3301673  65.3894913  80.2931313   4.8161673  64.7384913  79.7221313
   4.5181673  64.4234913  80.4791313   5.5111673  65.2114913  79.9571313
   4.8751673  64.7614913  79.8691313   5.4461673  66.7844913  85.1821313
   4.7521673  67.1864913  85.5251313   6.1231673  67.2174913  85.5211313
   5.4431673  66.9074913  85.2831313  11.8481673  61.4104913  77.2441313
  11.9511673  61.3524913  76.3801313  12.5891673  61.0784913  77.5621313
  11.9731673  61.3534913  77.1631313   5.7681673  68.3754913  78.3511313
   5.5631673  69.2084913  78.1921313   4.9931673  67.9934913  78.4731313
   5.6231673  68.4424913  78.3461313  10.9501673  61.5564913  86.6001313
  10.9481673  60.6934913  86.7241313  11.0171673  61.8804913  87.4071313
  10.9601673  61.4764913  86.7371313   5.8231673  56.5464913  81.2361313
   5.1231673  57.0644913  81.1801313   5.8611673  56.1664913  80.4521313
   5.7251673  56.5674913  81.1121313   9.4211673  57.0624913  84.0361313
  10.2761673  57.1614913  84.1811313   9.0521673  57.6154913  84.6011313
   9.4931673  57.1594913  84.1411313   9.7251673  62.3424913  82.5271313
  10.3911673  62.8834913  82.6871313   9.3801673  62.6534913  81.7881313
   9.7721673  62.4684913  82.4421313  12.8961673  54.9004913  87.1921313
  12.8441673  54.8564913  88.0621313  13.5831673  54.3974913  87.0021313
  12.9901673  54.8204913  87.2921313   4.9811673  57.0134913  84.2371313
   4.2441673  56.5594913  84.3501313   5.5521673  56.6114913  84.7601313
   4.9561673  56.8864913  84.3311313   7.7131673  67.8614913  86.0251313
   7.9191673  68.1624913  86.8171313   7.6521673  68.5834913  85.5401313
   7.7341673  68.0124913  86.0701313   3.2801673  54.5944913  74.0681313
   3.3581673  54.8414913  73.2351313   2.5371673  54.9714913  74.3261313
   3.1821673  54.6864913  73.9831313  12.5251673  66.5004913  85.4831313
  12.4931673  65.6384913  85.3481313  11.8321673  66.8024913  85.0491313
  12.4181673  66.4174913  85.3991313  10.6301673  69.7604913  84.2801313
  11.1571673  69.6774913  83.5891313  10.2391673  68.9824913  84.3341313
  10.6501673  69.6334913  84.1861313   7.1441673  55.2044913  83.4881313
   7.8141673  55.7484913  83.6151313   6.6411673  55.6284913  82.9151313
   7.1691673  55.3474913  83.4221313   6.5031673  61.0124913  80.9811313
   7.0541673  60.4054913  81.2811313   6.0781673  61.2754913  81.6961313
   6.5221673  60.9614913  81.1301313   8.4731673  62.8434913  77.5431313
   8.5411673  61.9934913  77.7241313   7.6501673  62.9294913  77.2651313
   8.3611673  62.7304913  77.5291313   2.3921673  63.7344913  76.4811313
   2.4921673  63.8734913  75.6261313   3.2101673  63.6744913  76.7771313
   2.5271673  63.7454913  76.3981313   7.6271673  68.0634913  76.2831313
   7.3761673  67.9354913  77.1091313   7.3101673  67.3684913  75.8621313
   7.5431673  67.9424913  76.3431313  12.2711673  59.7214913  84.4031313
  11.4381673  59.9714913  84.3311313  12.2151673  58.8814913  84.6321313
  12.1401673  59.6344913  84.4261313   4.5131673  66.2714913  75.7131313
   5.2301673  65.9244913  75.3571313   4.4791673  67.0714913  75.3651313
   4.6141673  66.3384913  75.6091313   5.9221673  54.9124913  59.9518903
   5.6771673  55.4004913  59.2718903   6.7851673  54.8394913  59.8518903
   6.0131673  54.9734913  59.8368903   5.7311673  61.8284913  64.6228903
   5.2071673  62.4244913  64.9858903   6.1281673  61.4604913  65.3068903
   5.7121673  61.8624913  64.7778903  11.8751673  69.2694913  57.5938903
  12.5761673  68.7504913  57.5898903  11.2881673  68.8244913  57.1248903
  11.8921673  69.1264913  57.5238903   8.4021673  62.8954913  61.2988903
   8.4821673  62.8994913  60.4298903   7.8181673  62.2634913  61.4478903
   8.3271673  62.8024913  61.1928903   2.3911673  55.9994913  59.1068903
   2.3211673  56.6764913  58.5608903   3.1321673  55.6114913  58.8578903
   2.4901673  56.0424913  58.9888903   3.1911673  67.3054913  63.1688903
   3.5391673  66.5064913  63.1988903   3.8561673  67.8094913  62.9138903
   3.3411673  67.2614913  63.1358903   3.2481673  66.7544913  59.3798903
   3.5791673  66.1104913  59.8658903   3.4881673  66.5434913  58.5688903
   3.3321673  66.6284913  59.3318903   5.2161673  60.8854913  70.7188903
   4.3681673  60.7864913  70.5408903   5.2451673  61.6304913  71.1728903
   5.0951673  60.9814913  70.7598903   9.7741673  53.8454913  69.8328903
   9.6161673  54.6144913  69.4508903   9.0021673  53.6254913  70.1768903
   9.6361673  53.9264913  69.8278903   2.5631673  55.5604913  62.0478903
   2.6361673  56.4204913  62.1768903   2.5251673  55.4854913  61.1798903
   2.5681673  55.6764913  61.9388903   7.2361673  58.4864913  54.3468903
   6.7861673  59.1674913  54.6538903   7.3501673  57.9824913  55.0498903
   7.1871673  58.5124913  54.4958903   1.7771673  57.9354913  73.3378903
   1.8941673  57.4814913  72.6018903   2.0651673  58.7334913  73.1348903
   1.8371673  57.9864913  73.1988903  12.6301673  58.4594913  60.6418903
  12.2841673  59.1374913  61.0678903  11.9941673  57.8614913  60.6578903
  12.4851673  58.4714913  60.7068903   4.1591673  55.1754913  71.4898903
   4.3371673  54.3664913  71.2148903   4.0161673  55.6164913  70.7508903
   4.1641673  55.1214913  71.3398903   4.7531673  60.1014913  60.2628903
   5.0401673  59.8694913  59.4728903   5.4851673  60.1804913  60.7318903
   4.9031673  60.0784913  60.2158903   5.4751673  60.4404913  55.3838903
   5.7561673  61.2284913  55.6328903   4.6991673  60.6054913  55.0208903
   5.4021673  60.5814913  55.3668903  12.3051673  56.7824913  66.0108903
  13.0621673  56.8544913  65.5828903  12.3681673  56.0094913  66.4098903
  12.4261673  56.6794913  66.0058903   7.1961673  68.4144913  70.4498903
   7.1621673  68.7964913  71.2338903   8.0501673  68.3724913  70.2788903
   7.3171673  68.4644913  70.5408903   4.3341673  68.6114913  55.1998903
   4.1531673  69.1564913  55.8568903   5.1001673  68.9014913  54.8988903
   4.4201673  68.7354913  55.2528903   7.8411673  56.5074913  56.2538903
   8.3811673  55.8254913  56.3298903   7.9031673  56.9054913  57.0278903
   7.9301673  56.4654913  56.3798903   5.0991673  58.8834913  57.5678903
   4.5911673  58.2214913  57.3138903   5.1511673  59.3874913  56.8578903
   5.0321673  58.8604913  57.4258903   5.0991673  55.8244913  57.4588903
   4.6441673  55.4224913  56.8328903   5.8721673  55.9794913  57.0838903
   5.1461673  55.7884913  57.3108903   3.6971673  58.1914913  61.9808903
   3.7711673  58.7594913  61.3228903   3.8181673  58.6834913  62.6908903
   3.7251673  58.3484913  61.9888903   8.9221673  68.0264913  60.3928903
   9.6231673  67.5444913  60.5818903   8.2621673  67.4574913  60.4378903
   8.9281673  67.8714913  60.4268903   7.4891673  58.3614913  67.8688903
   7.3941673  58.6804913  68.6748903   6.8961673  57.7224913  67.8308903
   7.3871673  58.3134913  67.9828903   2.0111673  64.3854913  66.9438903
   2.0641673  65.2324913  67.1458903   1.7261673  64.0154913  67.6808903
   1.9771673  64.4554913  67.0818903   8.1881673  65.0804913  66.0738903
   7.6741673  64.6684913  66.6448903   8.0621673  65.9244913  66.2548903
   8.0941673  65.1444913  66.1848903   8.7451673  54.3054913  60.7048903
   8.7941673  53.9874913  61.5158903   9.0681673  53.6614913  60.2118903
   8.8001673  54.1634913  60.7518903  11.2091673  58.5414913  69.0128903
  11.9811673  58.3164913  69.3498903  10.7341673  58.7584913  69.7128903
  11.2531673  58.5404913  69.1658903  11.4411673  65.5194913  56.2008903
  11.5601673  65.2324913  57.0158903  12.2481673  65.5404913  55.8708903
  11.5771673  65.4804913  56.2728903   9.3361673  62.0564913  55.7858903
   9.1161673  62.7874913  55.3638903   8.8881673  62.1074913  56.5328903
   9.2371673  62.1714913  55.8338903  13.5231673  56.9174913  55.2388903
  12.8611673  56.3494913  55.2618903  13.3301673  57.4294913  54.5588903
  13.3971673  56.9094913  55.1418903   2.7481673  60.6114913  73.1828903
   2.2641673  61.1884913  73.6248903   2.7201673  60.9064913  72.3618903
   2.6721673  60.7404913  73.1268903  13.8461673  61.2954913  67.7948903
  14.0611673  60.4954913  67.5188903  12.9961673  61.3554913  67.6058903
  13.7521673  61.1864913  67.7258903  11.5251673  56.4754913  57.5178903
  12.2711673  56.0684913  57.7168903  11.7881673  57.1904913  57.0928903
  11.6741673  56.5214913  57.4848903   5.4681673  68.9614913  62.0938903
   4.9451673  69.5954913  61.8008903   5.7781673  68.5974913  61.3648903
   5.4361673  69.0014913  61.9428903   7.9791673  58.7634913  62.5908903
   8.3231673  58.9154913  63.3778903   7.5261673  58.0254913  62.7038903
   7.9631673  58.6764913  62.7238903   2.4551673  57.9834913  57.0478903
   2.4531673  57.8664913  56.1828903   2.2741673  58.8314913  57.1398903
   2.4281673  58.0914913  56.9338903   9.3001673  60.0954913  65.1448903
   8.6381673  60.4234913  65.6078903   9.4871673  60.7294913  64.5758903
   9.2301673  60.2374913  65.1288903   5.9451673  56.0014913  68.5738903
   6.0941673  55.1764913  68.3308903   6.3241673  56.0564913  69.3578903
   6.0231673  55.8874913  68.6538903   7.4931673  58.0644913  58.6558903
   7.9831673  58.7814913  58.5788903   6.7031673  58.3254913  58.3928903
   7.4491673  58.2084913  58.6058903   8.8071673  65.9424913  70.5658903
   9.2911673  66.6604913  70.6638903   9.2011673  65.5154913  69.9148903
   8.9371673  65.9854913  70.4838903   3.1031673  68.7874913  71.7428903
   3.4571673  68.6094913  72.5198903   2.6671673  68.0584913  71.5438903
   3.0911673  68.6534913  71.8288903   4.0751673  59.5344913  64.3808903
   4.5551673  60.2334913  64.5888903   4.4481673  58.8874913  64.8318903
   4.2011673  59.5424913  64.4778903   6.2641673  62.7034913  56.6548903
   6.2561673  63.4254913  56.1648903   5.6251673  62.8384913  57.2318903
   6.1691673  62.8304913  56.6678903  11.2361673  66.5734913  60.6358903
  11.5921673  66.2234913  61.3508903  11.2281673  65.9124913  60.0658903
  11.2881673  66.4234913  60.6568903   7.2941673  66.4904913  63.8798903
   6.4971673  66.7144913  64.1538903   7.5521673  65.8964913  64.4648903
   7.2141673  66.4354913  64.0068903  10.5541673  64.4884913  68.7258903
  10.6091673  64.6134913  67.8638903  11.3071673  64.8084913  69.0278903
  10.6731673  64.5534913  68.6428903  11.5861673  54.7864913  71.7128903
  10.9491673  54.3864913  71.2708903  11.6121673  54.3554913  72.4708903
  11.4961673  54.6644913  71.7588903   6.2851673  64.2944913  68.3258903
   6.1301673  64.9044913  68.9298903   6.8191673  63.7364913  68.7318903
   6.3411673  64.3024913  68.4748903   4.6691673  62.6944913  58.9838903
   4.7281673  63.3444913  59.5628903   4.4801673  61.9984913  59.4748903
   4.6501673  62.6874913  59.1418903   9.8951673  67.0234913  64.8528903
   9.4161673  67.3214913  64.1868903   9.5391673  66.2474913  65.0308903
   9.7721673  66.9524913  64.7808903   3.8921673  64.7414913  63.4148903
   3.0451673  64.5474913  63.4958903   4.2161673  64.5764913  64.2078903
   3.8141673  64.6884913  63.5438903  10.8261673  63.9654913  65.9718903
  10.8191673  63.1894913  66.3698903   9.9851673  64.1994913  65.9648903
  10.7011673  63.8854913  66.0298903  12.0821673  64.0364913  63.4088903
  11.7961673  64.4374913  64.1288903  12.9421673  63.9744913  63.5358903
  12.1671673  64.0864913  63.5338903   9.7441673  57.9604913  71.9488903
   9.2191673  58.4194913  72.4728903   9.3831673  57.1654913  71.9428903
   9.6131673  57.9104913  72.0248903   8.2361673  61.5294913  72.0248903
   8.3091673  61.6334913  72.8878903   7.6021673  62.0874913  71.8038903
   8.1531673  61.6274913  72.1198903  10.5041673  61.8484913  70.3898903
  10.8231673  62.6344913  70.5928903  10.1341673  61.5784913  71.1328903
  10.4971673  61.9244913  70.5298903   9.8181673  68.2724913  55.9198903
  10.1521673  67.4664913  55.9548903   9.0631673  68.2004913  56.3498903
   9.7561673  68.1424913  55.9888903  10.3001673  60.1064913  61.5788903
   9.5551673  59.7834913  61.8968903  10.3021673  60.9324913  61.8588903
  10.1901673  60.1804913  61.6668903  13.2021673  62.3904913  73.1248903
  13.1501673  62.0494913  72.3238903  13.9391673  62.8574913  73.1028903
  13.3031673  62.4094913  73.0028903  12.7401673  66.0664913  69.3308903
  13.3681673  65.5174913  69.0748903  12.6791673  66.6314913  68.6688903
  12.8241673  66.0694913  69.1948903   7.1921673  66.1474913  55.3228903
   7.8761673  65.6334913  55.1538903   6.7751673  66.1934913  54.5578903
   7.2311673  66.0784913  55.1848903   9.2121673  56.4364913  69.0398903
   9.9561673  56.8884913  68.9768903   8.6461673  56.9064913  68.5708903
   9.2391673  56.5734913  68.9618903   4.3901673  63.7204913  66.1178903
   4.8661673  64.0944913  66.7458903   3.5671673  63.8544913  66.3768903
   4.3391673  63.7954913  66.2488903  10.4971673  54.4164913  66.7098903
  10.2171673  55.2414913  66.6658903  11.2131673  54.4694913  67.2058903
  10.5621673  54.5464913  66.7768903   2.8521673  55.1314913  68.7388903
   3.5571673  55.4514913  68.3368903   3.0931673  54.3244913  68.9658903
   2.9911673  55.0594913  68.7128903   6.1461673  65.9754913  71.7238903
   6.9031673  66.2614913  71.3978903   5.5991673  66.0274913  71.0458903
   6.1771673  66.0254913  71.5748903  10.0551673  68.5254913  70.2278903
  10.4011673  68.7954913  70.9818903  10.3491673  69.1074913  69.6478903
  10.1501673  68.6514913  70.2538903  11.9181673  60.6714913  55.5668903
  12.2961673  61.3484913  55.1668903  11.0761673  60.8954913  55.5978903
  11.8491673  60.8044913  55.5118903   3.4311673  64.1174913  54.6498903
   2.6261673  63.9404913  54.3648903   3.3981673  64.9684913  54.8418903
   3.3071673  64.2164913  54.6368903   7.3771673  59.2864913  70.3918903
   6.7291673  59.7564913  70.7398903   7.9421673  59.1974913  71.0508903
   7.3651673  59.3424913  70.5408903   7.0651673  60.8234913  66.6898903
   7.3671673  61.2434913  67.3928903   7.1011673  59.9834913  66.9218903
   7.1151673  60.7614913  66.8278903   9.6131673  60.2704913  58.9418903
   9.8201673  60.0694913  59.7658903  10.3691673  60.5384913  58.5998903
   9.7551673  60.2804913  59.0128903   2.9081673  55.1694913  64.8468903
   2.0821673  55.0204913  65.0838903   2.8681673  55.2044913  63.9758903
   2.7801673  55.1524913  64.7528903  10.6351673  56.3534913  60.4158903
   9.9211673  55.8824913  60.5868903  10.4731673  56.6944913  59.6298903
  10.5061673  56.3344913  60.3248903  11.0781673  64.2974913  58.7958903
  11.5541673  63.5684913  58.7478903  10.2571673  64.0114913  58.7198903
  11.0271673  64.1474913  58.7768903   4.5491673  66.2094913  69.6348903
   3.7541673  66.1454913  69.9858903   4.6201673  67.0564913  69.4398903
   4.4421673  66.3244913  69.6578903   7.2941673  65.4644913  61.1508903
   7.3701673  65.8054913  61.9498903   7.4631673  64.6174913  61.2718903
   7.3301673  65.3894913  61.2868903   4.8161673  64.7384913  60.7158903
   4.5181673  64.4234913  61.4728903   5.5111673  65.2114913  60.9508903
   4.8751673  64.7614913  60.8628903   5.0381673  68.8564913  68.7428903
   5.7251673  68.7424913  69.2678903   5.1721673  69.6474913  68.3988903
   5.1591673  68.9564913  68.7698903  13.2141673  61.4654913  70.5538903
  12.3591673  61.3434913  70.6798903  13.3671673  61.0704913  69.7908903
  13.1101673  61.3884913  70.4598903   7.7271673  62.1304913  69.1298903
   7.4721673  61.4114913  69.5518903   8.5481673  62.2464913  69.3998903
   7.8111673  62.0414913  69.2318903   5.6611673  63.3204913  72.3168903
   5.9841673  64.0064913  71.8848903   4.9571673  63.6434913  72.7188903
   5.6041673  63.4694913  72.3118903   5.4461673  66.7844913  66.1758903
   4.7521673  67.1864913  66.5188903   6.1231673  67.2174913  66.5148903
   5.4431673  66.9074913  66.2768903  10.8231673  69.3774913  72.7558903
  11.5991673  68.9874913  72.8388903  10.3541673  69.0414913  73.4108903
  10.8681673  69.2704913  72.8648903  11.8481673  61.4104913  58.2378903
  11.9511673  61.3524913  57.3738903  12.5891673  61.0784913  58.5558903
  11.9731673  61.3534913  58.1568903   5.7681673  68.3754913  59.3448903
   5.5631673  69.2084913  59.1858903   4.9931673  67.9934913  59.4668903
   5.6231673  68.4424913  59.3398903  10.9501673  61.5564913  67.5938903
  10.9481673  60.6934913  67.7178903  11.0171673  61.8804913  68.4008903
  10.9601673  61.4764913  67.7308903   6.8291673  56.3564913  71.3758903
   6.9211673  57.0684913  71.8698903   6.1921673  55.9114913  71.7728903
   6.7481673  56.3954913  71.5078903   5.8231673  56.5464913  62.2298903
   5.1231673  57.0644913  62.1738903   5.8611673  56.1664913  61.4458903
   5.7251673  56.5674913  62.1058903   9.4211673  57.0624913  65.0298903
  10.2761673  57.1614913  65.1748903   9.0521673  57.6154913  65.5948903
   9.4931673  57.1594913  65.1348903   9.7251673  62.3424913  63.5208903
  10.3911673  62.8834913  63.6808903   9.3801673  62.6534913  62.7818903
   9.7721673  62.4684913  63.4358903  12.8961673  54.9004913  68.1858903
  12.8441673  54.8564913  69.0558903  13.5831673  54.3974913  67.9958903
  12.9901673  54.8204913  68.2858903   4.9811673  57.0134913  65.2308903
   4.2441673  56.5594913  65.3438903   5.5521673  56.6114913  65.7538903
   4.9561673  56.8864913  65.3248903   7.7131673  67.8614913  67.0188903
   7.9191673  68.1624913  67.8108903   7.6521673  68.5834913  66.5338903
   7.7341673  68.0124913  67.0638903   2.4841673  61.3424913  70.4348903
   2.1621673  60.7664913  69.8648903   2.1251673  62.0974913  70.1888903
   2.3841673  61.3684913  70.3148903   3.2801673  54.5944913  55.0618903
   3.3581673  54.8414913  54.2288903   2.5371673  54.9714913  55.3198903
   3.1821673  54.6864913  54.9768903  12.5251673  66.5004913  66.4768903
  12.4931673  65.6384913  66.3418903  11.8321673  66.8024913  66.0428903
  12.4181673  66.4174913  66.3928903  10.6301673  69.7604913  65.2738903
  11.1571673  69.6774913  64.5828903  10.2391673  68.9824913  65.3278903
  10.6501673  69.6334913  65.1798903   7.1441673  55.2044913  64.4818903
   7.8141673  55.7484913  64.6088903   6.6411673  55.6284913  63.9088903
   7.1691673  55.3474913  64.4158903   6.5031673  61.0124913  61.9748903
   7.0541673  60.4054913  62.2748903   6.0781673  61.2754913  62.6898903
   6.5221673  60.9614913  62.1238903   8.4731673  62.8434913  58.5368903
   8.5411673  61.9934913  58.7178903   7.6501673  62.9294913  58.2588903
   8.3611673  62.7304913  58.5228903   2.3921673  63.7344913  57.4748903
   2.4921673  63.8734913  56.6198903   3.2101673  63.6744913  57.7708903
   2.5271673  63.7454913  57.3918903  11.7471673  64.2164913  71.6878903
  12.3811673  64.0464913  72.2618903  12.1641673  64.6194913  71.0358903
  11.9021673  64.2514913  71.6768903   7.6271673  68.0634913  57.2768903
   7.3761673  67.9354913  58.1028903   7.3101673  67.3684913  56.8558903
   7.5431673  67.9424913  57.3368903  12.3721673  58.7804913  72.4258903
  12.1761673  59.4244913  72.9808903  11.6501673  58.2904913  72.4178903
  12.2371673  58.8034913  72.5068903  12.2711673  59.7214913  65.3968903
  11.4381673  59.9714913  65.3248903  12.2151673  58.8814913  65.6258903
  12.1401673  59.6344913  65.4198903   9.1581673  64.3274913  73.0428903
  10.0291673  64.2914913  73.0068903   8.9391673  64.7474913  72.3108903
   9.2551673  64.3834913  72.9298903   4.5131673  66.2714913  56.7068903
   5.2301673  65.9244913  56.3508903   4.4791673  67.0714913  56.3588903
   4.6141673  66.3384913  56.6028903   5.9221673  54.9124913  40.9456493
   5.6771673  55.4004913  40.2656493   6.7851673  54.8394913  40.8456493
   6.0131673  54.9734913  40.8306493   5.7311673  61.8284913  45.6166493
   5.2071673  62.4244913  45.9796493   6.1281673  61.4604913  46.3006493
   5.7121673  61.8624913  45.7716493  11.8751673  69.2694913  38.5876493
  12.5761673  68.7504913  38.5836493  11.2881673  68.8244913  38.1186493
  11.8921673  69.1264913  38.5176493   8.4021673  62.8954913  42.2926493
   8.4821673  62.8994913  41.4236493   7.8181673  62.2634913  42.4416493
   8.3271673  62.8024913  42.1866493   2.3911673  55.9994913  40.1006493
   2.3211673  56.6764913  39.5546493   3.1321673  55.6114913  39.8516493
   2.4901673  56.0424913  39.9826493   3.1911673  67.3054913  44.1626493
   3.5391673  66.5064913  44.1926493   3.8561673  67.8094913  43.9076493
   3.3411673  67.2614913  44.1296493   3.2481673  66.7544913  40.3736493
   3.5791673  66.1104913  40.8596493   3.4881673  66.5434913  39.5626493
   3.3321673  66.6284913  40.3256493   5.2161673  60.8854913  51.7126493
   4.3681673  60.7864913  51.5346493   5.2451673  61.6304913  52.1666493
   5.0951673  60.9814913  51.7536493   9.7741673  53.8454913  50.8266493
   9.6161673  54.6144913  50.4446493   9.0021673  53.6254913  51.1706493
   9.6361673  53.9264913  50.8216493   2.5631673  55.5604913  43.0416493
   2.6361673  56.4204913  43.1706493   2.5251673  55.4854913  42.1736493
   2.5681673  55.6764913  42.9326493   7.2361673  58.4864913  35.3406493
   6.7861673  59.1674913  35.6476493   7.3501673  57.9824913  36.0436493
   7.1871673  58.5124913  35.4896493   1.7771673  57.9354913  54.3316493
   1.8941673  57.4814913  53.5956493   2.0651673  58.7334913  54.1286493
   1.8371673  57.9864913  54.1926493  12.6301673  58.4594913  41.6356493
  12.2841673  59.1374913  42.0616493  11.9941673  57.8614913  41.6516493
  12.4851673  58.4714913  41.7006493   4.1591673  55.1754913  52.4836493
   4.3371673  54.3664913  52.2086493   4.0161673  55.6164913  51.7446493
   4.1641673  55.1214913  52.3336493   4.7531673  60.1014913  41.2566493
   5.0401673  59.8694913  40.4666493   5.4851673  60.1804913  41.7256493
   4.9031673  60.0784913  41.2096493   5.4751673  60.4404913  36.3776493
   5.7561673  61.2284913  36.6266493   4.6991673  60.6054913  36.0146493
   5.4021673  60.5814913  36.3606493  12.3051673  56.7824913  47.0046493
  13.0621673  56.8544913  46.5766493  12.3681673  56.0094913  47.4036493
  12.4261673  56.6794913  46.9996493   7.1961673  68.4144913  51.4436493
   7.1621673  68.7964913  52.2276493   8.0501673  68.3724913  51.2726493
   7.3171673  68.4644913  51.5346493   4.3341673  68.6114913  36.1936493
   4.1531673  69.1564913  36.8506493   5.1001673  68.9014913  35.8926493
   4.4201673  68.7354913  36.2466493   7.8411673  56.5074913  37.2476493
   8.3811673  55.8254913  37.3236493   7.9031673  56.9054913  38.0216493
   7.9301673  56.4654913  37.3736493   5.0991673  58.8834913  38.5616493
   4.5911673  58.2214913  38.3076493   5.1511673  59.3874913  37.8516493
   5.0321673  58.8604913  38.4196493   5.0991673  55.8244913  38.4526493
   4.6441673  55.4224913  37.8266493   5.8721673  55.9794913  38.0776493
   5.1461673  55.7884913  38.3046493   3.6971673  58.1914913  42.9746493
   3.7711673  58.7594913  42.3166493   3.8181673  58.6834913  43.6846493
   3.7251673  58.3484913  42.9826493   8.9221673  68.0264913  41.3866493
   9.6231673  67.5444913  41.5756493   8.2621673  67.4574913  41.4316493
   8.9281673  67.8714913  41.4206493   7.4891673  58.3614913  48.8626493
   7.3941673  58.6804913  49.6686493   6.8961673  57.7224913  48.8246493
   7.3871673  58.3134913  48.9766493   2.0111673  64.3854913  47.9376493
   2.0641673  65.2324913  48.1396493   1.7261673  64.0154913  48.6746493
   1.9771673  64.4554913  48.0756493   8.1881673  65.0804913  47.0676493
   7.6741673  64.6684913  47.6386493   8.0621673  65.9244913  47.2486493
   8.0941673  65.1444913  47.1786493   8.7451673  54.3054913  41.6986493
   8.7941673  53.9874913  42.5096493   9.0681673  53.6614913  41.2056493
   8.8001673  54.1634913  41.7456493  11.2091673  58.5414913  50.0066493
  11.9811673  58.3164913  50.3436493  10.7341673  58.7584913  50.7066493
  11.2531673  58.5404913  50.1596493  11.4411673  65.5194913  37.1946493
  11.5601673  65.2324913  38.0096493  12.2481673  65.5404913  36.8646493
  11.5771673  65.4804913  37.2666493   9.3361673  62.0564913  36.7796493
   9.1161673  62.7874913  36.3576493   8.8881673  62.1074913  37.5266493
   9.2371673  62.1714913  36.8276493  13.5231673  56.9174913  36.2326493
  12.8611673  56.3494913  36.2556493  13.3301673  57.4294913  35.5526493
  13.3971673  56.9094913  36.1356493   2.7481673  60.6114913  54.1766493
   2.2641673  61.1884913  54.6186493   2.7201673  60.9064913  53.3556493
   2.6721673  60.7404913  54.1206493  13.8461673  61.2954913  48.7886493
  14.0611673  60.4954913  48.5126493  12.9961673  61.3554913  48.5996493
  13.7521673  61.1864913  48.7196493  11.5251673  56.4754913  38.5116493
  12.2711673  56.0684913  38.7106493  11.7881673  57.1904913  38.0866493
  11.6741673  56.5214913  38.4786493   5.4681673  68.9614913  43.0876493
   4.9451673  69.5954913  42.7946493   5.7781673  68.5974913  42.3586493
   5.4361673  69.0014913  42.9366493   7.9791673  58.7634913  43.5846493
   8.3231673  58.9154913  44.3716493   7.5261673  58.0254913  43.6976493
   7.9631673  58.6764913  43.7176493   2.4551673  57.9834913  38.0416493
   2.4531673  57.8664913  37.1766493   2.2741673  58.8314913  38.1336493
   2.4281673  58.0914913  37.9276493   9.3001673  60.0954913  46.1386493
   8.6381673  60.4234913  46.6016493   9.4871673  60.7294913  45.5696493
   9.2301673  60.2374913  46.1226493   5.9451673  56.0014913  49.5676493
   6.0941673  55.1764913  49.3246493   6.3241673  56.0564913  50.3516493
   6.0231673  55.8874913  49.6476493   7.4931673  58.0644913  39.6496493
   7.9831673  58.7814913  39.5726493   6.7031673  58.3254913  39.3866493
   7.4491673  58.2084913  39.5996493   8.8071673  65.9424913  51.5596493
   9.2911673  66.6604913  51.6576493   9.2011673  65.5154913  50.9086493
   8.9371673  65.9854913  51.4776493   3.1031673  68.7874913  52.7366493
   3.4571673  68.6094913  53.5136493   2.6671673  68.0584913  52.5376493
   3.0911673  68.6534913  52.8226493   4.0751673  59.5344913  45.3746493
   4.5551673  60.2334913  45.5826493   4.4481673  58.8874913  45.8256493
   4.2011673  59.5424913  45.4716493   6.2641673  62.7034913  37.6486493
   6.2561673  63.4254913  37.1586493   5.6251673  62.8384913  38.2256493
   6.1691673  62.8304913  37.6616493  11.2361673  66.5734913  41.6296493
  11.5921673  66.2234913  42.3446493  11.2281673  65.9124913  41.0596493
  11.2881673  66.4234913  41.6506493   7.2941673  66.4904913  44.8736493
   6.4971673  66.7144913  45.1476493   7.5521673  65.8964913  45.4586493
   7.2141673  66.4354913  45.0006493  10.5541673  64.4884913  49.7196493
  10.6091673  64.6134913  48.8576493  11.3071673  64.8084913  50.0216493
  10.6731673  64.5534913  49.6366493  11.5861673  54.7864913  52.7066493
  10.9491673  54.3864913  52.2646493  11.6121673  54.3554913  53.4646493
  11.4961673  54.6644913  52.7526493   6.2851673  64.2944913  49.3196493
   6.1301673  64.9044913  49.9236493   6.8191673  63.7364913  49.7256493
   6.3411673  64.3024913  49.4686493   4.6691673  62.6944913  39.9776493
   4.7281673  63.3444913  40.5566493   4.4801673  61.9984913  40.4686493
   4.6501673  62.6874913  40.1356493   9.8951673  67.0234913  45.8466493
   9.4161673  67.3214913  45.1806493   9.5391673  66.2474913  46.0246493
   9.7721673  66.9524913  45.7746493   3.8921673  64.7414913  44.4086493
   3.0451673  64.5474913  44.4896493   4.2161673  64.5764913  45.2016493
   3.8141673  64.6884913  44.5376493  10.8261673  63.9654913  46.9656493
  10.8191673  63.1894913  47.3636493   9.9851673  64.1994913  46.9586493
  10.7011673  63.8854913  47.0236493  12.0821673  64.0364913  44.4026493
  11.7961673  64.4374913  45.1226493  12.9421673  63.9744913  44.5296493
  12.1671673  64.0864913  44.5276493   9.7441673  57.9604913  52.9426493
   9.2191673  58.4194913  53.4666493   9.3831673  57.1654913  52.9366493
   9.6131673  57.9104913  53.0186493   8.2361673  61.5294913  53.0186493
   8.3091673  61.6334913  53.8816493   7.6021673  62.0874913  52.7976493
   8.1531673  61.6274913  53.1136493  10.5041673  61.8484913  51.3836493
  10.8231673  62.6344913  51.5866493  10.1341673  61.5784913  52.1266493
  10.4971673  61.9244913  51.5236493   9.8181673  68.2724913  36.9136493
  10.1521673  67.4664913  36.9486493   9.0631673  68.2004913  37.3436493
   9.7561673  68.1424913  36.9826493  10.3001673  60.1064913  42.5726493
   9.5551673  59.7834913  42.8906493  10.3021673  60.9324913  42.8526493
  10.1901673  60.1804913  42.6606493  13.2021673  62.3904913  54.1186493
  13.1501673  62.0494913  53.3176493  13.9391673  62.8574913  54.0966493
  13.3031673  62.4094913  53.9966493  12.7401673  66.0664913  50.3246493
  13.3681673  65.5174913  50.0686493  12.6791673  66.6314913  49.6626493
  12.8241673  66.0694913  50.1886493   7.1921673  66.1474913  36.3166493
   7.8761673  65.6334913  36.1476493   6.7751673  66.1934913  35.5516493
   7.2311673  66.0784913  36.1786493   9.2121673  56.4364913  50.0336493
   9.9561673  56.8884913  49.9706493   8.6461673  56.9064913  49.5646493
   9.2391673  56.5734913  49.9556493   4.3901673  63.7204913  47.1116493
   4.8661673  64.0944913  47.7396493   3.5671673  63.8544913  47.3706493
   4.3391673  63.7954913  47.2426493  10.4971673  54.4164913  47.7036493
  10.2171673  55.2414913  47.6596493  11.2131673  54.4694913  48.1996493
  10.5621673  54.5464913  47.7706493   2.8521673  55.1314913  49.7326493
   3.5571673  55.4514913  49.3306493   3.0931673  54.3244913  49.9596493
   2.9911673  55.0594913  49.7066493   6.1461673  65.9754913  52.7176493
   6.9031673  66.2614913  52.3916493   5.5991673  66.0274913  52.0396493
   6.1771673  66.0254913  52.5686493  10.0551673  68.5254913  51.2216493
  10.4011673  68.7954913  51.9756493  10.3491673  69.1074913  50.6416493
  10.1501673  68.6514913  51.2476493  11.9181673  60.6714913  36.5606493
  12.2961673  61.3484913  36.1606493  11.0761673  60.8954913  36.5916493
  11.8491673  60.8044913  36.5056493   3.4311673  64.1174913  35.6436493
   2.6261673  63.9404913  35.3586493   3.3981673  64.9684913  35.8356493
   3.3071673  64.2164913  35.6306493   7.3771673  59.2864913  51.3856493
   6.7291673  59.7564913  51.7336493   7.9421673  59.1974913  52.0446493
   7.3651673  59.3424913  51.5346493   7.0651673  60.8234913  47.6836493
   7.3671673  61.2434913  48.3866493   7.1011673  59.9834913  47.9156493
   7.1151673  60.7614913  47.8216493   9.6131673  60.2704913  39.9356493
   9.8201673  60.0694913  40.7596493  10.3691673  60.5384913  39.5936493
   9.7551673  60.2804913  40.0066493   2.9081673  55.1694913  45.8406493
   2.0821673  55.0204913  46.0776493   2.8681673  55.2044913  44.9696493
   2.7801673  55.1524913  45.7466493  10.6351673  56.3534913  41.4096493
   9.9211673  55.8824913  41.5806493  10.4731673  56.6944913  40.6236493
  10.5061673  56.3344913  41.3186493  11.0781673  64.2974913  39.7896493
  11.5541673  63.5684913  39.7416493  10.2571673  64.0114913  39.7136493
  11.0271673  64.1474913  39.7706493   4.5491673  66.2094913  50.6286493
   3.7541673  66.1454913  50.9796493   4.6201673  67.0564913  50.4336493
   4.4421673  66.3244913  50.6516493   7.2941673  65.4644913  42.1446493
   7.3701673  65.8054913  42.9436493   7.4631673  64.6174913  42.2656493
   7.3301673  65.3894913  42.2806493   4.8161673  64.7384913  41.7096493
   4.5181673  64.4234913  42.4666493   5.5111673  65.2114913  41.9446493
   4.8751673  64.7614913  41.8566493   5.0381673  68.8564913  49.7366493
   5.7251673  68.7424913  50.2616493   5.1721673  69.6474913  49.3926493
   5.1591673  68.9564913  49.7636493  13.2141673  61.4654913  51.5476493
  12.3591673  61.3434913  51.6736493  13.3671673  61.0704913  50.7846493
  13.1101673  61.3884913  51.4536493   7.7271673  62.1304913  50.1236493
   7.4721673  61.4114913  50.5456493   8.5481673  62.2464913  50.3936493
   7.8111673  62.0414913  50.2256493   5.6611673  63.3204913  53.3106493
   5.9841673  64.0064913  52.8786493   4.9571673  63.6434913  53.7126493
   5.6041673  63.4694913  53.3056493   5.4461673  66.7844913  47.1696493
   4.7521673  67.1864913  47.5126493   6.1231673  67.2174913  47.5086493
   5.4431673  66.9074913  47.2706493  10.8231673  69.3774913  53.7496493
  11.5991673  68.9874913  53.8326493  10.3541673  69.0414913  54.4046493
  10.8681673  69.2704913  53.8586493  11.8481673  61.4104913  39.2316493
  11.9511673  61.3524913  38.3676493  12.5891673  61.0784913  39.5496493
  11.9731673  61.3534913  39.1506493   5.7681673  68.3754913  40.3386493
   5.5631673  69.2084913  40.1796493   4.9931673  67.9934913  40.4606493
   5.6231673  68.4424913  40.3336493  10.9501673  61.5564913  48.5876493
  10.9481673  60.6934913  48.7116493  11.0171673  61.8804913  49.3946493
  10.9601673  61.4764913  48.7246493   6.8291673  56.3564913  52.3696493
   6.9211673  57.0684913  52.8636493   6.1921673  55.9114913  52.7666493
   6.7481673  56.3954913  52.5016493   5.8231673  56.5464913  43.2236493
   5.1231673  57.0644913  43.1676493   5.8611673  56.1664913  42.4396493
   5.7251673  56.5674913  43.0996493   9.4211673  57.0624913  46.0236493
  10.2761673  57.1614913  46.1686493   9.0521673  57.6154913  46.5886493
   9.4931673  57.1594913  46.1286493   9.7251673  62.3424913  44.5146493
  10.3911673  62.8834913  44.6746493   9.3801673  62.6534913  43.7756493
   9.7721673  62.4684913  44.4296493  12.8961673  54.9004913  49.1796493
  12.8441673  54.8564913  50.0496493  13.5831673  54.3974913  48.9896493
  12.9901673  54.8204913  49.2796493   4.9811673  57.0134913  46.2246493
   4.2441673  56.5594913  46.3376493   5.5521673  56.6114913  46.7476493
   4.9561673  56.8864913  46.3186493   7.7131673  67.8614913  48.0126493
   7.9191673  68.1624913  48.8046493   7.6521673  68.5834913  47.5276493
   7.7341673  68.0124913  48.0576493   2.4841673  61.3424913  51.4286493
   2.1621673  60.7664913  50.8586493   2.1251673  62.0974913  51.1826493
   2.3841673  61.3684913  51.3086493   3.2801673  54.5944913  36.0556493
   3.3581673  54.8414913  35.2226493   2.5371673  54.9714913  36.3136493
   3.1821673  54.6864913  35.9706493  12.5251673  66.5004913  47.4706493
  12.4931673  65.6384913  47.3356493  11.8321673  66.8024913  47.0366493
  12.4181673  66.4174913  47.3866493  10.6301673  69.7604913  46.2676493
  11.1571673  69.6774913  45.5766493  10.2391673  68.9824913  46.3216493
  10.6501673  69.6334913  46.1736493   7.1441673  55.2044913  45.4756493
   7.8141673  55.7484913  45.6026493   6.6411673  55.6284913  44.9026493
   7.1691673  55.3474913  45.4096493   6.5031673  61.0124913  42.9686493
   7.0541673  60.4054913  43.2686493   6.0781673  61.2754913  43.6836493
   6.5221673  60.9614913  43.1176493   8.4731673  62.8434913  39.5306493
   8.5411673  61.9934913  39.7116493   7.6501673  62.9294913  39.2526493
   8.3611673  62.7304913  39.5166493   2.3921673  63.7344913  38.4686493
   2.4921673  63.8734913  37.6136493   3.2101673  63.6744913  38.7646493
   2.5271673  63.7454913  38.3856493  11.7471673  64.2164913  52.6816493
  12.3811673  64.0464913  53.2556493  12.1641673  64.6194913  52.0296493
  11.9021673  64.2514913  52.6706493   7.6271673  68.0634913  38.2706493
   7.3761673  67.9354913  39.0966493   7.3101673  67.3684913  37.8496493
   7.5431673  67.9424913  38.3306493  12.3721673  58.7804913  53.4196493
  12.1761673  59.4244913  53.9746493  11.6501673  58.2904913  53.4116493
  12.2371673  58.8034913  53.5006493  12.2711673  59.7214913  46.3906493
  11.4381673  59.9714913  46.3186493  12.2151673  58.8814913  46.6196493
  12.1401673  59.6344913  46.4136493   9.1581673  64.3274913  54.0366493
  10.0291673  64.2914913  54.0006493   8.9391673  64.7474913  53.3046493
   9.2551673  64.3834913  53.9236493   4.5131673  66.2714913  37.7006493
   5.2301673  65.9244913  37.3446493   4.4791673  67.0714913  37.3526493
   4.6141673  66.3384913  37.5966493   5.9221673  54.9124913  21.9394083
   5.6771673  55.4004913  21.2594083   6.7851673  54.8394913  21.8394083
   6.0131673  54.9734913  21.8244083   5.7311673  61.8284913  26.6104083
   5.2071673  62.4244913  26.9734083   6.1281673  61.4604913  27.2944083
   5.7121673  61.8624913  26.7654083  11.8751673  69.2694913  19.5814083
  12.5761673  68.7504913  19.5774083  11.2881673  68.8244913  19.1124083
  11.8921673  69.1264913  19.5114083   8.4021673  62.8954913  23.2864083
   8.4821673  62.8994913  22.4174083   7.8181673  62.2634913  23.4354083
   8.3271673  62.8024913  23.1804083   2.3911673  55.9994913  21.0944083
   2.3211673  56.6764913  20.5484083   3.1321673  55.6114913  20.8454083
   2.4901673  56.0424913  20.9764083   3.1911673  67.3054913  25.1564083
   3.5391673  66.5064913  25.1864083   3.8561673  67.8094913  24.9014083
   3.3411673  67.2614913  25.1234083   3.2481673  66.7544913  21.3674083
   3.5791673  66.1104913  21.8534083   3.4881673  66.5434913  20.5564083
   3.3321673  66.6284913  21.3194083   5.2161673  60.8854913  32.7064083
   4.3681673  60.7864913  32.5284083   5.2451673  61.6304913  33.1604083
   5.0951673  60.9814913  32.7474083   9.7741673  53.8454913  31.8204083
   9.6161673  54.6144913  31.4384083   9.0021673  53.6254913  32.1644083
   9.6361673  53.9264913  31.8154083   2.5631673  55.5604913  24.0354083
   2.6361673  56.4204913  24.1644083   2.5251673  55.4854913  23.1674083
   2.5681673  55.6764913  23.9264083   7.2361673  58.4864913  16.3344083
   6.7861673  59.1674913  16.6414083   7.3501673  57.9824913  17.0374083
   7.1871673  58.5124913  16.4834083   1.7771673  57.9354913  35.3254083
   1.8941673  57.4814913  34.5894083   2.0651673  58.7334913  35.1224083
   1.8371673  57.9864913  35.1864083  12.6301673  58.4594913  22.6294083
  12.2841673  59.1374913  23.0554083  11.9941673  57.8614913  22.6454083
  12.4851673  58.4714913  22.6944083   4.1591673  55.1754913  33.4774083
   4.3371673  54.3664913  33.2024083   4.0161673  55.6164913  32.7384083
   4.1641673  55.1214913  33.3274083   4.7531673  60.1014913  22.2504083
   5.0401673  59.8694913  21.4604083   5.4851673  60.1804913  22.7194083
   4.9031673  60.0784913  22.2034083   5.4751673  60.4404913  17.3714083
   5.7561673  61.2284913  17.6204083   4.6991673  60.6054913  17.0084083
   5.4021673  60.5814913  17.3544083  12.3051673  56.7824913  27.9984083
  13.0621673  56.8544913  27.5704083  12.3681673  56.0094913  28.3974083
  12.4261673  56.6794913  27.9934083   7.1961673  68.4144913  32.4374083
   7.1621673  68.7964913  33.2214083   8.0501673  68.3724913  32.2664083
   7.3171673  68.4644913  32.5284083   4.3341673  68.6114913  17.1874083
   4.1531673  69.1564913  17.8444083   5.1001673  68.9014913  16.8864083
   4.4201673  68.7354913  17.2404083   7.8411673  56.5074913  18.2414083
   8.3811673  55.8254913  18.3174083   7.9031673  56.9054913  19.0154083
   7.9301673  56.4654913  18.3674083   5.0991673  58.8834913  19.5554083
   4.5911673  58.2214913  19.3014083   5.1511673  59.3874913  18.8454083
   5.0321673  58.8604913  19.4134083   5.0991673  55.8244913  19.4464083
   4.6441673  55.4224913  18.8204083   5.8721673  55.9794913  19.0714083
   5.1461673  55.7884913  19.2984083   3.6971673  58.1914913  23.9684083
   3.7711673  58.7594913  23.3104083   3.8181673  58.6834913  24.6784083
   3.7251673  58.3484913  23.9764083   8.9221673  68.0264913  22.3804083
   9.6231673  67.5444913  22.5694083   8.2621673  67.4574913  22.4254083
   8.9281673  67.8714913  22.4144083   7.4891673  58.3614913  29.8564083
   7.3941673  58.6804913  30.6624083   6.8961673  57.7224913  29.8184083
   7.3871673  58.3134913  29.9704083   2.0111673  64.3854913  28.9314083
   2.0641673  65.2324913  29.1334083   1.7261673  64.0154913  29.6684083
   1.9771673  64.4554913  29.0694083   8.1881673  65.0804913  28.0614083
   7.6741673  64.6684913  28.6324083   8.0621673  65.9244913  28.2424083
   8.0941673  65.1444913  28.1724083   8.7451673  54.3054913  22.6924083
   8.7941673  53.9874913  23.5034083   9.0681673  53.6614913  22.1994083
   8.8001673  54.1634913  22.7394083  11.2091673  58.5414913  31.0004083
  11.9811673  58.3164913  31.3374083  10.7341673  58.7584913  31.7004083
  11.2531673  58.5404913  31.1534083  11.4411673  65.5194913  18.1884083
  11.5601673  65.2324913  19.0034083  12.2481673  65.5404913  17.8584083
  11.5771673  65.4804913  18.2604083   9.3361673  62.0564913  17.7734083
   9.1161673  62.7874913  17.3514083   8.8881673  62.1074913  18.5204083
   9.2371673  62.1714913  17.8214083  13.5231673  56.9174913  17.2264083
  12.8611673  56.3494913  17.2494083  13.3301673  57.4294913  16.5464083
  13.3971673  56.9094913  17.1294083   2.7481673  60.6114913  35.1704083
   2.2641673  61.1884913  35.6124083   2.7201673  60.9064913  34.3494083
   2.6721673  60.7404913  35.1144083  13.8461673  61.2954913  29.7824083
  14.0611673  60.4954913  29.5064083  12.9961673  61.3554913  29.5934083
  13.7521673  61.1864913  29.7134083  11.5251673  56.4754913  19.5054083
  12.2711673  56.0684913  19.7044083  11.7881673  57.1904913  19.0804083
  11.6741673  56.5214913  19.4724083   5.4681673  68.9614913  24.0814083
   4.9451673  69.5954913  23.7884083   5.7781673  68.5974913  23.3524083
   5.4361673  69.0014913  23.9304083   7.9791673  58.7634913  24.5784083
   8.3231673  58.9154913  25.3654083   7.5261673  58.0254913  24.6914083
   7.9631673  58.6764913  24.7114083   2.4551673  57.9834913  19.0354083
   2.4531673  57.8664913  18.1704083   2.2741673  58.8314913  19.1274083
   2.4281673  58.0914913  18.9214083   9.3001673  60.0954913  27.1324083
   8.6381673  60.4234913  27.5954083   9.4871673  60.7294913  26.5634083
   9.2301673  60.2374913  27.1164083   5.9451673  56.0014913  30.5614083
   6.0941673  55.1764913  30.3184083   6.3241673  56.0564913  31.3454083
   6.0231673  55.8874913  30.6414083   7.4931673  58.0644913  20.6434083
   7.9831673  58.7814913  20.5664083   6.7031673  58.3254913  20.3804083
   7.4491673  58.2084913  20.5934083   8.8071673  65.9424913  32.5534083
   9.2911673  66.6604913  32.6514083   9.2011673  65.5154913  31.9024083
   8.9371673  65.9854913  32.4714083   3.1031673  68.7874913  33.7304083
   3.4571673  68.6094913  34.5074083   2.6671673  68.0584913  33.5314083
   3.0911673  68.6534913  33.8164083   4.0751673  59.5344913  26.3684083
   4.5551673  60.2334913  26.5764083   4.4481673  58.8874913  26.8194083
   4.2011673  59.5424913  26.4654083   6.2641673  62.7034913  18.6424083
   6.2561673  63.4254913  18.1524083   5.6251673  62.8384913  19.2194083
   6.1691673  62.8304913  18.6554083  11.2361673  66.5734913  22.6234083
  11.5921673  66.2234913  23.3384083  11.2281673  65.9124913  22.0534083
  11.2881673  66.4234913  22.6444083   7.2941673  66.4904913  25.8674083
   6.4971673  66.7144913  26.1414083   7.5521673  65.8964913  26.4524083
   7.2141673  66.4354913  25.9944083  10.5541673  64.4884913  30.7134083
  10.6091673  64.6134913  29.8514083  11.3071673  64.8084913  31.0154083
  10.6731673  64.5534913  30.6304083  11.5861673  54.7864913  33.7004083
  10.9491673  54.3864913  33.2584083  11.6121673  54.3554913  34.4584083
  11.4961673  54.6644913  33.7464083   6.2851673  64.2944913  30.3134083
   6.1301673  64.9044913  30.9174083   6.8191673  63.7364913  30.7194083
   6.3411673  64.3024913  30.4624083   4.6691673  62.6944913  20.9714083
   4.7281673  63.3444913  21.5504083   4.4801673  61.9984913  21.4624083
   4.6501673  62.6874913  21.1294083   9.8951673  67.0234913  26.8404083
   9.4161673  67.3214913  26.1744083   9.5391673  66.2474913  27.0184083
   9.7721673  66.9524913  26.7684083   3.8921673  64.7414913  25.4024083
   3.0451673  64.5474913  25.4834083   4.2161673  64.5764913  26.1954083
   3.8141673  64.6884913  25.5314083  10.8261673  63.9654913  27.9594083
  10.8191673  63.1894913  28.3574083   9.9851673  64.1994913  27.9524083
  10.7011673  63.8854913  28.0174083  12.0821673  64.0364913  25.3964083
  11.7961673  64.4374913  26.1164083  12.9421673  63.9744913  25.5234083
  12.1671673  64.0864913  25.5214083   9.7441673  57.9604913  33.9364083
   9.2191673  58.4194913  34.4604083   9.3831673  57.1654913  33.9304083
   9.6131673  57.9104913  34.0124083   8.2361673  61.5294913  34.0124083
   8.3091673  61.6334913  34.8754083   7.6021673  62.0874913  33.7914083
   8.1531673  61.6274913  34.1074083  10.5041673  61.8484913  32.3774083
  10.8231673  62.6344913  32.5804083  10.1341673  61.5784913  33.1204083
  10.4971673  61.9244913  32.5174083   9.8181673  68.2724913  17.9074083
  10.1521673  67.4664913  17.9424083   9.0631673  68.2004913  18.3374083
   9.7561673  68.1424913  17.9764083  10.3001673  60.1064913  23.5664083
   9.5551673  59.7834913  23.8844083  10.3021673  60.9324913  23.8464083
  10.1901673  60.1804913  23.6544083  13.2021673  62.3904913  35.1124083
  13.1501673  62.0494913  34.3114083  13.9391673  62.8574913  35.0904083
  13.3031673  62.4094913  34.9904083  12.7401673  66.0664913  31.3184083
  13.3681673  65.5174913  31.0624083  12.6791673  66.6314913  30.6564083
  12.8241673  66.0694913  31.1824083   7.1921673  66.1474913  17.3104083
   7.8761673  65.6334913  17.1414083   6.7751673  66.1934913  16.5454083
   7.2311673  66.0784913  17.1724083   9.2121673  56.4364913  31.0274083
   9.9561673  56.8884913  30.9644083   8.6461673  56.9064913  30.5584083
   9.2391673  56.5734913  30.9494083   4.3901673  63.7204913  28.1054083
   4.8661673  64.0944913  28.7334083   3.5671673  63.8544913  28.3644083
   4.3391673  63.7954913  28.2364083  10.4971673  54.4164913  28.6974083
  10.2171673  55.2414913  28.6534083  11.2131673  54.4694913  29.1934083
  10.5621673  54.5464913  28.7644083   2.8521673  55.1314913  30.7264083
   3.5571673  55.4514913  30.3244083   3.0931673  54.3244913  30.9534083
   2.9911673  55.0594913  30.7004083   6.1461673  65.9754913  33.7114083
   6.9031673  66.2614913  33.3854083   5.5991673  66.0274913  33.0334083
   6.1771673  66.0254913  33.5624083  10.0551673  68.5254913  32.2154083
  10.4011673  68.7954913  32.9694083  10.3491673  69.1074913  31.6354083
  10.1501673  68.6514913  32.2414083  11.9181673  60.6714913  17.5544083
  12.2961673  61.3484913  17.1544083  11.0761673  60.8954913  17.5854083
  11.8491673  60.8044913  17.4994083   3.4311673  64.1174913  16.6374083
   2.6261673  63.9404913  16.3524083   3.3981673  64.9684913  16.8294083
   3.3071673  64.2164913  16.6244083   7.3771673  59.2864913  32.3794083
   6.7291673  59.7564913  32.7274083   7.9421673  59.1974913  33.0384083
   7.3651673  59.3424913  32.5284083   7.0651673  60.8234913  28.6774083
   7.3671673  61.2434913  29.3804083   7.1011673  59.9834913  28.9094083
   7.1151673  60.7614913  28.8154083   9.6131673  60.2704913  20.9294083
   9.8201673  60.0694913  21.7534083  10.3691673  60.5384913  20.5874083
   9.7551673  60.2804913  21.0004083   2.9081673  55.1694913  26.8344083
   2.0821673  55.0204913  27.0714083   2.8681673  55.2044913  25.9634083
   2.7801673  55.1524913  26.7404083  10.6351673  56.3534913  22.4034083
   9.9211673  55.8824913  22.5744083  10.4731673  56.6944913  21.6174083
  10.5061673  56.3344913  22.3124083  11.0781673  64.2974913  20.7834083
  11.5541673  63.5684913  20.7354083  10.2571673  64.0114913  20.7074083
  11.0271673  64.1474913  20.7644083   4.5491673  66.2094913  31.6224083
   3.7541673  66.1454913  31.9734083   4.6201673  67.0564913  31.4274083
   4.4421673  66.3244913  31.6454083   7.2941673  65.4644913  23.1384083
   7.3701673  65.8054913  23.9374083   7.4631673  64.6174913  23.2594083
   7.3301673  65.3894913  23.2744083   4.8161673  64.7384913  22.7034083
   4.5181673  64.4234913  23.4604083   5.5111673  65.2114913  22.9384083
   4.8751673  64.7614913  22.8504083   5.0381673  68.8564913  30.7304083
   5.7251673  68.7424913  31.2554083   5.1721673  69.6474913  30.3864083
   5.1591673  68.9564913  30.7574083  13.2141673  61.4654913  32.5414083
  12.3591673  61.3434913  32.6674083  13.3671673  61.0704913  31.7784083
  13.1101673  61.3884913  32.4474083   7.7271673  62.1304913  31.1174083
   7.4721673  61.4114913  31.5394083   8.5481673  62.2464913  31.3874083
   7.8111673  62.0414913  31.2194083   5.6611673  63.3204913  34.3044083
   5.9841673  64.0064913  33.8724083   4.9571673  63.6434913  34.7064083
   5.6041673  63.4694913  34.2994083   5.4461673  66.7844913  28.1634083
   4.7521673  67.1864913  28.5064083   6.1231673  67.2174913  28.5024083
   5.4431673  66.9074913  28.2644083  10.8231673  69.3774913  34.7434083
  11.5991673  68.9874913  34.8264083  10.3541673  69.0414913  35.3984083
  10.8681673  69.2704913  34.8524083  11.8481673  61.4104913  20.2254083
  11.9511673  61.3524913  19.3614083  12.5891673  61.0784913  20.5434083
  11.9731673  61.3534913  20.1444083   5.7681673  68.3754913  21.3324083
   5.5631673  69.2084913  21.1734083   4.9931673  67.9934913  21.4544083
   5.6231673  68.4424913  21.3274083  10.9501673  61.5564913  29.5814083
  10.9481673  60.6934913  29.7054083  11.0171673  61.8804913  30.3884083
  10.9601673  61.4764913  29.7184083   6.8291673  56.3564913  33.3634083
   6.9211673  57.0684913  33.8574083   6.1921673  55.9114913  33.7604083
   6.7481673  56.3954913  33.4954083   5.8231673  56.5464913  24.2174083
   5.1231673  57.0644913  24.1614083   5.8611673  56.1664913  23.4334083
   5.7251673  56.5674913  24.0934083   9.4211673  57.0624913  27.0174083
  10.2761673  57.1614913  27.1624083   9.0521673  57.6154913  27.5824083
   9.4931673  57.1594913  27.1224083   9.7251673  62.3424913  25.5084083
  10.3911673  62.8834913  25.6684083   9.3801673  62.6534913  24.7694083
   9.7721673  62.4684913  25.4234083  12.8961673  54.9004913  30.1734083
  12.8441673  54.8564913  31.0434083  13.5831673  54.3974913  29.9834083
  12.9901673  54.8204913  30.2734083   4.9811673  57.0134913  27.2184083
   4.2441673  56.5594913  27.3314083   5.5521673  56.6114913  27.7414083
   4.9561673  56.8864913  27.3124083   7.7131673  67.8614913  29.0064083
   7.9191673  68.1624913  29.7984083   7.6521673  68.5834913  28.5214083
   7.7341673  68.0124913  29.0514083   2.4841673  61.3424913  32.4224083
   2.1621673  60.7664913  31.8524083   2.1251673  62.0974913  32.1764083
   2.3841673  61.3684913  32.3024083   3.2801673  54.5944913  17.0494083
   3.3581673  54.8414913  16.2164083   2.5371673  54.9714913  17.3074083
   3.1821673  54.6864913  16.9644083  12.5251673  66.5004913  28.4644083
  12.4931673  65.6384913  28.3294083  11.8321673  66.8024913  28.0304083
  12.4181673  66.4174913  28.3804083  10.6301673  69.7604913  27.2614083
  11.1571673  69.6774913  26.5704083  10.2391673  68.9824913  27.3154083
  10.6501673  69.6334913  27.1674083   7.1441673  55.2044913  26.4694083
   7.8141673  55.7484913  26.5964083   6.6411673  55.6284913  25.8964083
   7.1691673  55.3474913  26.4034083   6.5031673  61.0124913  23.9624083
   7.0541673  60.4054913  24.2624083   6.0781673  61.2754913  24.6774083
   6.5221673  60.9614913  24.1114083   8.4731673  62.8434913  20.5244083
   8.5411673  61.9934913  20.7054083   7.6501673  62.9294913  20.2464083
   8.3611673  62.7304913  20.5104083   2.3921673  63.7344913  19.4624083
   2.4921673  63.8734913  18.6074083   3.2101673  63.6744913  19.7584083
   2.5271673  63.7454913  19.3794083  11.7471673  64.2164913  33.6754083
  12.3811673  64.0464913  34.2494083  12.1641673  64.6194913  33.0234083
  11.9021673  64.2514913  33.6644083   7.6271673  68.0634913  19.2644083
   7.3761673  67.9354913  20.0904083   7.3101673  67.3684913  18.8434083
   7.5431673  67.9424913  19.3244083  12.3721673  58.7804913  34.4134083
  12.1761673  59.4244913  34.9684083  11.6501673  58.2904913  34.4054083
  12.2371673  58.8034913  34.4944083  12.2711673  59.7214913  27.3844083
  11.4381673  59.9714913  27.3124083  12.2151673  58.8814913  27.6134083
  12.1401673  59.6344913  27.4074083   9.1581673  64.3274913  35.0304083
  10.0291673  64.2914913  34.9944083   8.9391673  64.7474913  34.2984083
   9.2551673  64.3834913  34.9174083   4.5131673  66.2714913  18.6944083
   5.2301673  65.9244913  18.3384083   4.4791673  67.0714913  18.3464083
   4.6141673  66.3384913  18.5904083   5.9221673  54.9124913   2.9331673
   5.6771673  55.4004913   2.2531673   6.7851673  54.8394913   2.8331673
   6.0131673  54.9734913   2.8181673   5.7311673  61.8284913   7.6041673
   5.2071673  62.4244913   7.9671673   6.1281673  61.4604913   8.2881673
   5.7121673  61.8624913   7.7591673   8.4021673  62.8954913   4.2801673
   8.4821673  62.8994913   3.4111673   7.8181673  62.2634913   4.4291673
   8.3271673  62.8024913   4.1741673   2.3911673  55.9994913   2.0881673
   2.3211673  56.6764913   1.5421673   3.1321673  55.6114913   1.8391673
   2.4901673  56.0424913   1.9701673   3.1911673  67.3054913   6.1501673
   3.5391673  66.5064913   6.1801673   3.8561673  67.8094913   5.8951673
   3.3411673  67.2614913   6.1171673   3.2481673  66.7544913   2.3611673
   3.5791673  66.1104913   2.8471673   3.4881673  66.5434913   1.5501673
   3.3321673  66.6284913   2.3131673   5.2161673  60.8854913  13.7001673
   4.3681673  60.7864913  13.5221673   5.2451673  61.6304913  14.1541673
   5.0951673  60.9814913  13.7411673   9.7741673  53.8454913  12.8141673
   9.6161673  54.6144913  12.4321673   9.0021673  53.6254913  13.1581673
   9.6361673  53.9264913  12.8091673   2.5631673  55.5604913   5.0291673
   2.6361673  56.4204913   5.1581673   2.5251673  55.4854913   4.1611673
   2.5681673  55.6764913   4.9201673   1.7771673  57.9354913  16.3191673
   1.8941673  57.4814913  15.5831673   2.0651673  58.7334913  16.1161673
   1.8371673  57.9864913  16.1801673  12.6301673  58.4594913   3.6231673
  12.2841673  59.1374913   4.0491673  11.9941673  57.8614913   3.6391673
  12.4851673  58.4714913   3.6881673   4.1591673  55.1754913  14.4711673
   4.3371673  54.3664913  14.1961673   4.0161673  55.6164913  13.7321673
   4.1641673  55.1214913  14.3211673   4.7531673  60.1014913   3.2441673
   5.0401673  59.8694913   2.4541673   5.4851673  60.1804913   3.7131673
   4.9031673  60.0784913   3.1971673  12.3051673  56.7824913   8.9921673
  13.0621673  56.8544913   8.5641673  12.3681673  56.0094913   9.3911673
  12.4261673  56.6794913   8.9871673   7.1961673  68.4144913  13.4311673
   7.1621673  68.7964913  14.2151673   8.0501673  68.3724913  13.2601673
   7.3171673  68.4644913  13.5221673   3.6971673  58.1914913   4.9621673
   3.7711673  58.7594913   4.3041673   3.8181673  58.6834913   5.6721673
   3.7251673  58.3484913   4.9701673   8.9221673  68.0264913   3.3741673
   9.6231673  67.5444913   3.5631673   8.2621673  67.4574913   3.4191673
   8.9281673  67.8714913   3.4081673   7.4891673  58.3614913  10.8501673
   7.3941673  58.6804913  11.6561673   6.8961673  57.7224913  10.8121673
   7.3871673  58.3134913  10.9641673   2.0111673  64.3854913   9.9251673
   2.0641673  65.2324913  10.1271673   1.7261673  64.0154913  10.6621673
   1.9771673  64.4554913  10.0631673   8.1881673  65.0804913   9.0551673
   7.6741673  64.6684913   9.6261673   8.0621673  65.9244913   9.2361673
   8.0941673  65.1444913   9.1661673   8.7451673  54.3054913   3.6861673
   8.7941673  53.9874913   4.4971673   9.0681673  53.6614913   3.1931673
   8.8001673  54.1634913   3.7331673  11.2091673  58.5414913  11.9941673
  11.9811673  58.3164913  12.3311673  10.7341673  58.7584913  12.6941673
  11.2531673  58.5404913  12.1471673   2.7481673  60.6114913  16.1641673
   2.2641673  61.1884913  16.6061673   2.7201673  60.9064913  15.3431673
   2.6721673  60.7404913  16.1081673  13.8461673  61.2954913  10.7761673
  14.0611673  60.4954913  10.5001673  12.9961673  61.3554913  10.5871673
  13.7521673  61.1864913  10.7071673   5.4681673  68.9614913   5.0751673
   4.9451673  69.5954913   4.7821673   5.7781673  68.5974913   4.3461673
   5.4361673  69.0014913   4.9241673   7.9791673  58.7634913   5.5721673
   8.3231673  58.9154913   6.3591673   7.5261673  58.0254913   5.6851673
   7.9631673  58.6764913   5.7051673   9.3001673  60.0954913   8.1261673
   8.6381673  60.4234913   8.5891673   9.4871673  60.7294913   7.5571673
   9.2301673  60.2374913   8.1101673   5.9451673  56.0014913  11.5551673
   6.0941673  55.1764913  11.3121673   6.3241673  56.0564913  12.3391673
   6.0231673  55.8874913  11.6351673   8.8071673  65.9424913  13.5471673
   9.2911673  66.6604913  13.6451673   9.2011673  65.5154913  12.8961673
   8.9371673  65.9854913  13.4651673   3.1031673  68.7874913  14.7241673
   3.4571673  68.6094913  15.5011673   2.6671673  68.0584913  14.5251673
   3.0911673  68.6534913  14.8101673   4.0751673  59.5344913   7.3621673
   4.5551673  60.2334913   7.5701673   4.4481673  58.8874913   7.8131673
   4.2011673  59.5424913   7.4591673  11.2361673  66.5734913   3.6171673
  11.5921673  66.2234913   4.3321673  11.2281673  65.9124913   3.0471673
  11.2881673  66.4234913   3.6381673   7.2941673  66.4904913   6.8611673
   6.4971673  66.7144913   7.1351673   7.5521673  65.8964913   7.4461673
   7.2141673  66.4354913   6.9881673  10.5541673  64.4884913  11.7071673
  10.6091673  64.6134913  10.8451673  11.3071673  64.8084913  12.0091673
  10.6731673  64.5534913  11.6241673  11.5861673  54.7864913  14.6941673
  10.9491673  54.3864913  14.2521673  11.6121673  54.3554913  15.4521673
  11.4961673  54.6644913  14.7401673   6.2851673  64.2944913  11.3071673
   6.1301673  64.9044913  11.9111673   6.8191673  63.7364913  11.7131673
   6.3411673  64.3024913  11.4561673   4.6691673  62.6944913   1.9651673
   4.7281673  63.3444913   2.5441673   4.4801673  61.9984913   2.4561673
   4.6501673  62.6874913   2.1231673   9.8951673  67.0234913   7.8341673
   9.4161673  67.3214913   7.1681673   9.5391673  66.2474913   8.0121673
   9.7721673  66.9524913   7.7621673   3.8921673  64.7414913   6.3961673
   3.0451673  64.5474913   6.4771673   4.2161673  64.5764913   7.1891673
   3.8141673  64.6884913   6.5251673  10.8261673  63.9654913   8.9531673
  10.8191673  63.1894913   9.3511673   9.9851673  64.1994913   8.9461673
  10.7011673  63.8854913   9.0111673  12.0821673  64.0364913   6.3901673
  11.7961673  64.4374913   7.1101673  12.9421673  63.9744913   6.5171673
  12.1671673  64.0864913   6.5151673   9.7441673  57.9604913  14.9301673
   9.2191673  58.4194913  15.4541673   9.3831673  57.1654913  14.9241673
   9.6131673  57.9104913  15.0061673   8.2361673  61.5294913  15.0061673
   8.3091673  61.6334913  15.8691673   7.6021673  62.0874913  14.7851673
   8.1531673  61.6274913  15.1011673  10.5041673  61.8484913  13.3711673
  10.8231673  62.6344913  13.5741673  10.1341673  61.5784913  14.1141673
  10.4971673  61.9244913  13.5111673  10.3001673  60.1064913   4.5601673
   9.5551673  59.7834913   4.8781673  10.3021673  60.9324913   4.8401673
  10.1901673  60.1804913   4.6481673  13.2021673  62.3904913  16.1061673
  13.1501673  62.0494913  15.3051673  13.9391673  62.8574913  16.0841673
  13.3031673  62.4094913  15.9841673  12.7401673  66.0664913  12.3121673
  13.3681673  65.5174913  12.0561673  12.6791673  66.6314913  11.6501673
  12.8241673  66.0694913  12.1761673   9.2121673  56.4364913  12.0211673
   9.9561673  56.8884913  11.9581673   8.6461673  56.9064913  11.5521673
   9.2391673  56.5734913  11.9431673   4.3901673  63.7204913   9.0991673
   4.8661673  64.0944913   9.7271673   3.5671673  63.8544913   9.3581673
   4.3391673  63.7954913   9.2301673  10.4971673  54.4164913   9.6911673
  10.2171673  55.2414913   9.6471673  11.2131673  54.4694913  10.1871673
  10.5621673  54.5464913   9.7581673   2.8521673  55.1314913  11.7201673
   3.5571673  55.4514913  11.3181673   3.0931673  54.3244913  11.9471673
   2.9911673  55.0594913  11.6941673   6.1461673  65.9754913  14.7051673
   6.9031673  66.2614913  14.3791673   5.5991673  66.0274913  14.0271673
   6.1771673  66.0254913  14.5561673  10.0551673  68.5254913  13.2091673
  10.4011673  68.7954913  13.9631673  10.3491673  69.1074913  12.6291673
  10.1501673  68.6514913  13.2351673   7.3771673  59.2864913  13.3731673
   6.7291673  59.7564913  13.7211673   7.9421673  59.1974913  14.0321673
   7.3651673  59.3424913  13.5221673   7.0651673  60.8234913   9.6711673
   7.3671673  61.2434913  10.3741673   7.1011673  59.9834913   9.9031673
   7.1151673  60.7614913   9.8091673   9.6131673  60.2704913   1.9231673
   9.8201673  60.0694913   2.7471673  10.3691673  60.5384913   1.5811673
   9.7551673  60.2804913   1.9941673   2.9081673  55.1694913   7.8281673
   2.0821673  55.0204913   8.0651673   2.8681673  55.2044913   6.9571673
   2.7801673  55.1524913   7.7341673  10.6351673  56.3534913   3.3971673
   9.9211673  55.8824913   3.5681673  10.4731673  56.6944913   2.6111673
  10.5061673  56.3344913   3.3061673  11.0781673  64.2974913   1.7771673
  11.5541673  63.5684913   1.7291673  10.2571673  64.0114913   1.7011673
  11.0271673  64.1474913   1.7581673   4.5491673  66.2094913  12.6161673
   3.7541673  66.1454913  12.9671673   4.6201673  67.0564913  12.4211673
   4.4421673  66.3244913  12.6391673   7.2941673  65.4644913   4.1321673
   7.3701673  65.8054913   4.9311673   7.4631673  64.6174913   4.2531673
   7.3301673  65.3894913   4.2681673   4.8161673  64.7384913   3.6971673
   4.5181673  64.4234913   4.4541673   5.5111673  65.2114913   3.9321673
   4.8751673  64.7614913   3.8441673   5.0381673  68.8564913  11.7241673
   5.7251673  68.7424913  12.2491673   5.1721673  69.6474913  11.3801673
   5.1591673  68.9564913  11.7511673  13.2141673  61.4654913  13.5351673
  12.3591673  61.3434913  13.6611673  13.3671673  61.0704913  12.7721673
  13.1101673  61.3884913  13.4411673   7.7271673  62.1304913  12.1111673
   7.4721673  61.4114913  12.5331673   8.5481673  62.2464913  12.3811673
   7.8111673  62.0414913  12.2131673   5.6611673  63.3204913  15.2981673
   5.9841673  64.0064913  14.8661673   4.9571673  63.6434913  15.7001673
   5.6041673  63.4694913  15.2931673   5.4461673  66.7844913   9.1571673
   4.7521673  67.1864913   9.5001673   6.1231673  67.2174913   9.4961673
   5.4431673  66.9074913   9.2581673  10.8231673  69.3774913  15.7371673
  11.5991673  68.9874913  15.8201673  10.3541673  69.0414913  16.3921673
  10.8681673  69.2704913  15.8461673   5.7681673  68.3754913   2.3261673
   5.5631673  69.2084913   2.1671673   4.9931673  67.9934913   2.4481673
   5.6231673  68.4424913   2.3211673  10.9501673  61.5564913  10.5751673
  10.9481673  60.6934913  10.6991673  11.0171673  61.8804913  11.3821673
  10.9601673  61.4764913  10.7121673   6.8291673  56.3564913  14.3571673
   6.9211673  57.0684913  14.8511673   6.1921673  55.9114913  14.7541673
   6.7481673  56.3954913  14.4891673   5.8231673  56.5464913   5.2111673
   5.1231673  57.0644913   5.1551673   5.8611673  56.1664913   4.4271673
   5.7251673  56.5674913   5.0871673   9.4211673  57.0624913   8.0111673
  10.2761673  57.1614913   8.1561673   9.0521673  57.6154913   8.5761673
   9.4931673  57.1594913   8.1161673   9.7251673  62.3424913   6.5021673
  10.3911673  62.8834913   6.6621673   9.3801673  62.6534913   5.7631673
   9.7721673  62.4684913   6.4171673  12.8961673  54.9004913  11.1671673
  12.8441673  54.8564913  12.0371673  13.5831673  54.3974913  10.9771673
  12.9901673  54.8204913  11.2671673   4.9811673  57.0134913   8.2121673
   4.2441673  56.5594913   8.3251673   5.5521673  56.6114913   8.7351673
   4.9561673  56.8864913   8.3061673   7.7131673  67.8614913  10.0001673
   7.9191673  68.1624913  10.7921673   7.6521673  68.5834913   9.5151673
   7.7341673  68.0124913  10.0451673   2.4841673  61.3424913  13.4161673
   2.1621673  60.7664913  12.8461673   2.1251673  62.0974913  13.1701673
   2.3841673  61.3684913  13.2961673  12.5251673  66.5004913   9.4581673
  12.4931673  65.6384913   9.3231673  11.8321673  66.8024913   9.0241673
  12.4181673  66.4174913   9.3741673  10.6301673  69.7604913   8.2551673
  11.1571673  69.6774913   7.5641673  10.2391673  68.9824913   8.3091673
  10.6501673  69.6334913   8.1611673   7.1441673  55.2044913   7.4631673
   7.8141673  55.7484913   7.5901673   6.6411673  55.6284913   6.8901673
   7.1691673  55.3474913   7.3971673   6.5031673  61.0124913   4.9561673
   7.0541673  60.4054913   5.2561673   6.0781673  61.2754913   5.6711673
   6.5221673  60.9614913   5.1051673  11.7471673  64.2164913  14.6691673
  12.3811673  64.0464913  15.2431673  12.1641673  64.6194913  14.0171673
  11.9021673  64.2514913  14.6581673  12.3721673  58.7804913  15.4071673
  12.1761673  59.4244913  15.9621673  11.6501673  58.2904913  15.3991673
  12.2371673  58.8034913  15.4881673  12.2711673  59.7214913   8.3781673
  11.4381673  59.9714913   8.3061673  12.2151673  58.8814913   8.6071673
  12.1401673  59.6344913   8.4011673   9.1581673  64.3274913  16.0241673
  10.0291673  64.2914913  15.9881673   8.9391673  64.7474913  15.2921673
   9.2551673  64.3834913  15.9111673   5.9221673  36.4343833  78.9581313
   5.6771673  36.9223833  78.2781313   6.7851673  36.3613833  78.8581313
   6.0131673  36.4953833  78.8431313   5.7311673  43.3503833  83.6291313
   5.2071673  43.9463833  83.9921313   6.1281673  42.9823833  84.3131313
   5.7121673  43.3843833  83.7841313  11.8751673  50.7913833  76.6001313
  12.5761673  50.2723833  76.5961313  11.2881673  50.3463833  76.1311313
  11.8921673  50.6483833  76.5301313   8.4021673  44.4173833  80.3051313
   8.4821673  44.4213833  79.4361313   7.8181673  43.7853833  80.4541313
   8.3271673  44.3243833  80.1991313   2.3911673  37.5213833  78.1131313
   2.3211673  38.1983833  77.5671313   3.1321673  37.1333833  77.8641313
   2.4901673  37.5643833  77.9951313   2.0961673  50.9423833  87.6701313
   2.2341673  51.7023833  87.2631313   2.8871673  50.5773833  87.6971313
   2.2331673  51.0013833  87.6141313   3.1911673  48.8273833  82.1751313
   3.5391673  48.0283833  82.2051313   3.8561673  49.3313833  81.9201313
   3.3411673  48.7833833  82.1421313   3.2481673  48.2763833  78.3861313
   3.5791673  47.6323833  78.8721313   3.4881673  48.0653833  77.5751313
   3.3321673  48.1503833  78.3381313   2.5631673  37.0823833  81.0541313
   2.6361673  37.9423833  81.1831313   2.5251673  37.0073833  80.1861313
   2.5681673  37.1983833  80.9451313   7.2361673  40.0083833  73.3531313
   6.7861673  40.6893833  73.6601313   7.3501673  39.5043833  74.0561313
   7.1871673  40.0343833  73.5021313   7.3351673  52.3493833  75.4571313
   8.0621673  52.8213833  75.5591313   7.5641673  51.5553833  75.7371313
   7.4771673  52.3023833  75.5141313   5.5031673  52.7413833  77.4471313
   5.7171673  53.2683833  78.1091313   6.2701673  52.5673833  77.0681313
   5.6481673  52.7933833  77.4891313  12.6301673  39.9813833  79.6481313
  12.2841673  40.6593833  80.0741313  11.9941673  39.3833833  79.6641313
  12.4851673  39.9933833  79.7131313   7.9421673  52.7513833  85.7521313
   8.6861673  53.2073833  85.7421313   7.8211673  52.5373833  84.9151313
   8.0341673  52.7873833  85.6271313   4.7531673  41.6233833  79.2691313
   5.0401673  41.3913833  78.4791313   5.4851673  41.7023833  79.7381313
   4.9031673  41.6003833  79.2221313   5.4751673  41.9623833  74.3901313
   5.7561673  42.7503833  74.6391313   4.6991673  42.1273833  74.0271313
   5.4021673  42.1033833  74.3731313   9.5161673  53.9363833  75.8571313
  10.1811673  53.7883833  75.3121313   9.8761673  53.8533833  76.6471313
   9.6681673  53.9023833  75.8931313  12.3051673  38.3043833  85.0171313
  13.0621673  38.3763833  84.5891313  12.3681673  37.5313833  85.4161313
  12.4261673  38.2013833  85.0121313   4.3341673  50.1333833  74.2061313
   4.1531673  50.6783833  74.8631313   5.1001673  50.4233833  73.9051313
   4.4201673  50.2573833  74.2591313   7.8411673  38.0293833  75.2601313
   8.3811673  37.3473833  75.3361313   7.9031673  38.4273833  76.0341313
   7.9301673  37.9873833  75.3861313   5.0991673  40.4053833  76.5741313
   4.5911673  39.7433833  76.3201313   5.1511673  40.9093833  75.8641313
   5.0321673  40.3823833  76.4321313   5.6481673  53.1003833  86.9541313
   6.4161673  53.0203833  86.5481313   5.0651673  52.9793833  86.3161313
   5.6751673  53.0703833  86.8001313   5.0991673  37.3463833  76.4651313
   4.6441673  36.9443833  75.8391313   5.8721673  37.5013833  76.0901313
   5.1461673  37.3103833  76.3171313  11.9251673  53.7033833  79.8551313
  11.4701673  54.4203833  80.0561313  11.3111673  53.1323833  79.6131313
  11.7671673  53.7253833  79.8491313   3.6971673  39.7133833  80.9871313
   3.7711673  40.2813833  80.3291313   3.8181673  40.2053833  81.6971313
   3.7251673  39.8703833  80.9951313   8.9221673  49.5483833  79.3991313
   9.6231673  49.0663833  79.5881313   8.2621673  48.9793833  79.4441313
   8.9281673  49.3933833  79.4331313   7.4891673  39.8833833  86.8751313
   7.3941673  40.2023833  87.6811313   6.8961673  39.2443833  86.8371313
   7.3871673  39.8353833  86.9891313   2.0111673  45.9073833  85.9501313
   2.0641673  46.7543833  86.1521313   1.7261673  45.5373833  86.6871313
   1.9771673  45.9773833  86.0881313   8.1881673  46.6023833  85.0801313
   7.6741673  46.1903833  85.6511313   8.0621673  47.4463833  85.2611313
   8.0941673  46.6663833  85.1911313   8.7451673  35.8273833  79.7111313
   8.7941673  35.5093833  80.5221313   9.0681673  35.1833833  79.2181313
   8.8001673  35.6853833  79.7581313  11.4411673  47.0413833  75.2071313
  11.5601673  46.7543833  76.0221313  12.2481673  47.0623833  74.8771313
  11.5771673  47.0023833  75.2791313   9.3361673  43.5783833  74.7921313
   9.1161673  44.3093833  74.3701313   8.8881673  43.6293833  75.5391313
   9.2371673  43.6933833  74.8401313  13.5231673  38.4393833  74.2451313
  12.8611673  37.8713833  74.2681313  13.3301673  38.9513833  73.5651313
  13.3971673  38.4313833  74.1481313  13.8461673  42.8173833  86.8011313
  14.0611673  42.0173833  86.5251313  12.9961673  42.8773833  86.6121313
  13.7521673  42.7083833  86.7321313  11.5251673  37.9973833  76.5241313
  12.2711673  37.5903833  76.7231313  11.7881673  38.7123833  76.0991313
  11.6741673  38.0433833  76.4911313   5.4681673  50.4833833  81.1001313
   4.9451673  51.1173833  80.8071313   5.7781673  50.1193833  80.3711313
   5.4361673  50.5233833  80.9491313   7.9791673  40.2853833  81.5971313
   8.3231673  40.4373833  82.3841313   7.5261673  39.5473833  81.7101313
   7.9631673  40.1983833  81.7301313   2.4551673  39.5053833  76.0541313
   2.4531673  39.3883833  75.1891313   2.2741673  40.3533833  76.1461313
   2.4281673  39.6133833  75.9401313  11.5091673  51.9323833  87.5511313
  10.8381673  52.4463833  87.7691313  11.5721673  52.0323833  86.6871313
  11.4191673  52.0233833  87.4561313   9.3001673  41.6173833  84.1511313
   8.6381673  41.9453833  84.6141313   9.4871673  42.2513833  83.5821313
   9.2301673  41.7593833  84.1351313   3.5051673  52.6813833  85.1471313
   3.2281673  52.0403833  84.6241313   3.2971673  53.4073833  84.7091313
   3.4341673  52.6943833  85.0051313   7.4931673  39.5863833  77.6621313
   7.9831673  40.3033833  77.5851313   6.7031673  39.8473833  77.3991313
   7.4491673  39.7303833  77.6121313   4.0751673  41.0563833  83.3871313
   4.5551673  41.7553833  83.5951313   4.4481673  40.4093833  83.8381313
   4.2011673  41.0643833  83.4841313   6.2641673  44.2253833  75.6611313
   6.2561673  44.9473833  75.1711313   5.6251673  44.3603833  76.2381313
   6.1691673  44.3523833  75.6741313  11.2361673  48.0953833  79.6421313
  11.5921673  47.7453833  80.3571313  11.2281673  47.4343833  79.0721313
  11.2881673  47.9453833  79.6631313   7.2811673  51.1613833  83.4861313
   6.6781673  50.8653833  82.9291313   7.8261673  51.6133833  82.9771313
   7.2721673  51.1843833  83.3281313   7.2941673  48.0123833  82.8861313
   6.4971673  48.2363833  83.1601313   7.5521673  47.4183833  83.4711313
   7.2141673  47.9573833  83.0131313   3.4781673  52.3403833  75.7361313
   4.1001673  52.5033833  76.3261313   3.5141673  53.0313833  75.2041313
   3.5751673  52.4663833  75.7451313  10.5541673  46.0103833  87.7321313
  10.6091673  46.1353833  86.8701313  11.3071673  46.3303833  88.0341313
  10.6731673  46.0753833  87.6491313   6.2851673  45.8163833  87.3321313
   6.1301673  46.4263833  87.9361313   6.8191673  45.2583833  87.7381313
   6.3411673  45.8243833  87.4811313   4.6691673  44.2163833  77.9901313
   4.7281673  44.8663833  78.5691313   4.4801673  43.5203833  78.4811313
   4.6501673  44.2093833  78.1481313   9.8951673  48.5453833  83.8591313
   9.4161673  48.8433833  83.1931313   9.5391673  47.7693833  84.0371313
   9.7721673  48.4743833  83.7871313   3.8921673  46.2633833  82.4211313
   3.0451673  46.0693833  82.5021313   4.2161673  46.0983833  83.2141313
   3.8141673  46.2103833  82.5501313  13.5871673  52.7113833  75.7991313
  14.2811673  52.2443833  75.5511313  13.0481673  52.1133833  76.1361313
  13.6101673  52.5533833  75.8121313  10.8261673  45.4873833  84.9781313
  10.8191673  44.7113833  85.3761313   9.9851673  45.7213833  84.9711313
  10.7011673  45.4073833  85.0361313  12.0821673  45.5583833  82.4151313
  11.7961673  45.9593833  83.1351313  12.9421673  45.4963833  82.5421313
  12.1671673  45.6083833  82.5401313  13.2131673  51.1913833  82.9441313
  13.5031673  51.4483833  82.1631313  13.9081673  51.2873833  83.4631313
  13.3591673  51.2433833  82.9051313   9.8181673  49.7943833  74.9261313
  10.1521673  48.9883833  74.9611313   9.0631673  49.7223833  75.3561313
   9.7561673  49.6643833  74.9951313  10.3001673  41.6283833  80.5851313
   9.5551673  41.3053833  80.9031313  10.3021673  42.4543833  80.8651313
  10.1901673  41.7023833  80.6731313   7.1921673  47.6693833  74.3291313
   7.8761673  47.1553833  74.1601313   6.7751673  47.7153833  73.5641313
   7.2311673  47.6003833  74.1911313   9.2121673  37.9583833  88.0461313
   9.9561673  38.4103833  87.9831313   8.6461673  38.4283833  87.5771313
   9.2391673  38.0953833  87.9681313   4.3901673  45.2423833  85.1241313
   4.8661673  45.6163833  85.7521313   3.5671673  45.3763833  85.3831313
   4.3391673  45.3173833  85.2551313   3.6541673  52.6353833  80.3521313
   4.2001673  53.3143833  80.4061313   3.3041673  52.7173833  79.5571313
   3.6831673  52.7483833  80.2421313  10.4971673  35.9383833  85.7161313
  10.2171673  36.7633833  85.6721313  11.2131673  35.9913833  86.2121313
  10.5621673  36.0683833  85.7831313   2.8521673  36.6533833  87.7451313
   3.5571673  36.9733833  87.3431313   3.0931673  35.8463833  87.9721313
   2.9911673  36.5813833  87.7191313  11.9181673  42.1933833  74.5731313
  12.2961673  42.8703833  74.1731313  11.0761673  42.4173833  74.6041313
  11.8491673  42.3263833  74.5181313   3.4311673  45.6393833  73.6561313
   2.6261673  45.4623833  73.3711313   3.3981673  46.4903833  73.8481313
   3.3071673  45.7383833  73.6431313   7.0651673  42.3453833  85.6961313
   7.3671673  42.7653833  86.3991313   7.1011673  41.5053833  85.9281313
   7.1151673  42.2833833  85.8341313   9.6131673  41.7923833  77.9481313
   9.8201673  41.5913833  78.7721313  10.3691673  42.0603833  77.6061313
   9.7551673  41.8023833  78.0191313   2.9081673  36.6913833  83.8531313
   2.0821673  36.5423833  84.0901313   2.8681673  36.7263833  82.9821313
   2.7801673  36.6743833  83.7591313  10.6351673  37.8753833  79.4221313
   9.9211673  37.4043833  79.5931313  10.4731673  38.2163833  78.6361313
  10.5061673  37.8563833  79.3311313  11.0781673  45.8193833  77.8021313
  11.5541673  45.0903833  77.7541313  10.2571673  45.5333833  77.7261313
  11.0271673  45.6693833  77.7831313   7.2941673  46.9863833  80.1571313
   7.3701673  47.3273833  80.9561313   7.4631673  46.1393833  80.2781313
   7.3301673  46.9113833  80.2931313   4.8161673  46.2603833  79.7221313
   4.5181673  45.9453833  80.4791313   5.5111673  46.7333833  79.9571313
   4.8751673  46.2833833  79.8691313   8.7451673  53.2163833  82.2521313
   8.2941673  53.8593833  82.6311313   9.4531673  53.1373833  82.7571313
   8.7831673  53.2993833  82.3831313   5.4461673  48.3063833  85.1821313
   4.7521673  48.7083833  85.5251313   6.1231673  48.7393833  85.5211313
   5.4431673  48.4293833  85.2831313  11.8481673  42.9323833  77.2441313
  11.9511673  42.8743833  76.3801313  12.5891673  42.6003833  77.5621313
  11.9731673  42.8753833  77.1631313   5.7681673  49.8973833  78.3511313
   5.5631673  50.7303833  78.1921313   4.9931673  49.5153833  78.4731313
   5.6231673  49.9643833  78.3461313  10.9501673  43.0783833  86.6001313
  10.9481673  42.2153833  86.7241313  11.0171673  43.4023833  87.4071313
  10.9601673  42.9983833  86.7371313   5.8231673  38.0683833  81.2361313
   5.1231673  38.5863833  81.1801313   5.8611673  37.6883833  80.4521313
   5.7251673  38.0893833  81.1121313   9.4211673  38.5843833  84.0361313
  10.2761673  38.6833833  84.1811313   9.0521673  39.1373833  84.6011313
   9.4931673  38.6813833  84.1411313   9.7251673  43.8643833  82.5271313
  10.3911673  44.4053833  82.6871313   9.3801673  44.1753833  81.7881313
   9.7721673  43.9903833  82.4421313  10.0381673  51.9303833  78.3341313
   9.8641673  51.2763833  78.8841313  10.7511673  51.6593833  77.9111313
  10.1181673  51.7933833  78.3531313  12.8961673  36.4223833  87.1921313
  12.8441673  36.3783833  88.0621313  13.5831673  35.9193833  87.0021313
  12.9901673  36.3423833  87.2921313   4.9811673  38.5353833  84.2371313
   4.2441673  38.0813833  84.3501313   5.5521673  38.1333833  84.7601313
   4.9561673  38.4083833  84.3311313   7.7131673  49.3833833  86.0251313
   7.9191673  49.6843833  86.8171313   7.6521673  50.1053833  85.5401313
   7.7341673  49.5343833  86.0701313   3.2801673  36.1163833  74.0681313
   3.3581673  36.3633833  73.2351313   2.5371673  36.4933833  74.3261313
   3.1821673  36.2083833  73.9831313  12.5251673  48.0223833  85.4831313
  12.4931673  47.1603833  85.3481313  11.8321673  48.3243833  85.0491313
  12.4181673  47.9393833  85.3991313  10.6301673  51.2823833  84.2801313
  11.1571673  51.1993833  83.5891313  10.2391673  50.5043833  84.3341313
  10.6501673  51.1553833  84.1861313   7.1441673  36.7263833  83.4881313
   7.8141673  37.2703833  83.6151313   6.6411673  37.1503833  82.9151313
   7.1691673  36.8693833  83.4221313   6.5031673  42.5343833  80.9811313
   7.0541673  41.9273833  81.2811313   6.0781673  42.7973833  81.6961313
   6.5221673  42.4833833  81.1301313   8.4731673  44.3653833  77.5431313
   8.5411673  43.5153833  77.7241313   7.6501673  44.4513833  77.2651313
   8.3611673  44.2523833  77.5291313   2.3921673  45.2563833  76.4811313
   2.4921673  45.3953833  75.6261313   3.2101673  45.1963833  76.7771313
   2.5271673  45.2673833  76.3981313  11.5521673  53.3203833  73.9611313
  12.1891673  53.1863833  74.5421313  11.2111673  52.5263833  73.8441313
  11.5961673  53.1833833  74.0291313   7.6271673  49.5853833  76.2831313
   7.3761673  49.4573833  77.1091313   7.3101673  48.8903833  75.8621313
   7.5431673  49.4643833  76.3431313  12.2711673  41.2433833  84.4031313
  11.4381673  41.4933833  84.3311313  12.2151673  40.4033833  84.6321313
  12.1401673  41.1563833  84.4261313   4.5131673  47.7933833  75.7131313
   5.2301673  47.4463833  75.3571313   4.4791673  48.5933833  75.3651313
   4.6141673  47.8603833  75.6091313   5.9221673  36.4343833  59.9518903
   5.6771673  36.9223833  59.2718903   6.7851673  36.3613833  59.8518903
   6.0131673  36.4953833  59.8368903   5.7311673  43.3503833  64.6228903
   5.2071673  43.9463833  64.9858903   6.1281673  42.9823833  65.3068903
   5.7121673  43.3843833  64.7778903  11.8751673  50.7913833  57.5938903
  12.5761673  50.2723833  57.5898903  11.2881673  50.3463833  57.1248903
  11.8921673  50.6483833  57.5238903   8.4021673  44.4173833  61.2988903
   8.4821673  44.4213833  60.4298903   7.8181673  43.7853833  61.4478903
   8.3271673  44.3243833  61.1928903   2.3911673  37.5213833  59.1068903
   2.3211673  38.1983833  58.5608903   3.1321673  37.1333833  58.8578903
   2.4901673  37.5643833  58.9888903   2.0961673  50.9423833  68.6638903
   2.2341673  51.7023833  68.2568903   2.8871673  50.5773833  68.6908903
   2.2331673  51.0013833  68.6078903   3.1911673  48.8273833  63.1688903
   3.5391673  48.0283833  63.1988903   3.8561673  49.3313833  62.9138903
   3.3411673  48.7833833  63.1358903   3.2481673  48.2763833  59.3798903
   3.5791673  47.6323833  59.8658903   3.4881673  48.0653833  58.5688903
   3.3321673  48.1503833  59.3318903   5.2161673  42.4073833  70.7188903
   4.3681673  42.3083833  70.5408903   5.2451673  43.1523833  71.1728903
   5.0951673  42.5033833  70.7598903   9.7741673  35.3673833  69.8328903
   9.6161673  36.1363833  69.4508903   9.0021673  35.1473833  70.1768903
   9.6361673  35.4483833  69.8278903   2.5631673  37.0823833  62.0478903
   2.6361673  37.9423833  62.1768903   2.5251673  37.0073833  61.1798903
   2.5681673  37.1983833  61.9388903   7.2361673  40.0083833  54.3468903
   6.7861673  40.6893833  54.6538903   7.3501673  39.5043833  55.0498903
   7.1871673  40.0343833  54.4958903   7.3351673  52.3493833  56.4508903
   8.0621673  52.8213833  56.5528903   7.5641673  51.5553833  56.7308903
   7.4771673  52.3023833  56.5078903   5.5031673  52.7413833  58.4408903
   5.7171673  53.2683833  59.1028903   6.2701673  52.5673833  58.0618903
   5.6481673  52.7933833  58.4828903   1.7771673  39.4573833  73.3378903
   1.8941673  39.0033833  72.6018903   2.0651673  40.2553833  73.1348903
   1.8371673  39.5083833  73.1988903  12.6301673  39.9813833  60.6418903
  12.2841673  40.6593833  61.0678903  11.9941673  39.3833833  60.6578903
  12.4851673  39.9933833  60.7068903   7.9421673  52.7513833  66.7458903
   8.6861673  53.2073833  66.7358903   7.8211673  52.5373833  65.9088903
   8.0341673  52.7873833  66.6208903   4.1591673  36.6973833  71.4898903
   4.3371673  35.8883833  71.2148903   4.0161673  37.1383833  70.7508903
   4.1641673  36.6433833  71.3398903   4.7531673  41.6233833  60.2628903
   5.0401673  41.3913833  59.4728903   5.4851673  41.7023833  60.7318903
   4.9031673  41.6003833  60.2158903   5.4751673  41.9623833  55.3838903
   5.7561673  42.7503833  55.6328903   4.6991673  42.1273833  55.0208903
   5.4021673  42.1033833  55.3668903   9.5161673  53.9363833  56.8508903
  10.1811673  53.7883833  56.3058903   9.8761673  53.8533833  57.6408903
   9.6681673  53.9023833  56.8868903  12.3051673  38.3043833  66.0108903
  13.0621673  38.3763833  65.5828903  12.3681673  37.5313833  66.4098903
  12.4261673  38.2013833  66.0058903   7.1961673  49.9363833  70.4498903
   7.1621673  50.3183833  71.2338903   8.0501673  49.8943833  70.2788903
   7.3171673  49.9863833  70.5408903   4.3341673  50.1333833  55.1998903
   4.1531673  50.6783833  55.8568903   5.1001673  50.4233833  54.8988903
   4.4201673  50.2573833  55.2528903   7.8411673  38.0293833  56.2538903
   8.3811673  37.3473833  56.3298903   7.9031673  38.4273833  57.0278903
   7.9301673  37.9873833  56.3798903   5.0991673  40.4053833  57.5678903
   4.5911673  39.7433833  57.3138903   5.1511673  40.9093833  56.8578903
   5.0321673  40.3823833  57.4258903   5.6481673  53.1003833  67.9478903
   6.4161673  53.0203833  67.5418903   5.0651673  52.9793833  67.3098903
   5.6751673  53.0703833  67.7938903   5.0991673  37.3463833  57.4588903
   4.6441673  36.9443833  56.8328903   5.8721673  37.5013833  57.0838903
   5.1461673  37.3103833  57.3108903  11.9251673  53.7033833  60.8488903
  11.4701673  54.4203833  61.0498903  11.3111673  53.1323833  60.6068903
  11.7671673  53.7253833  60.8428903   3.6971673  39.7133833  61.9808903
   3.7711673  40.2813833  61.3228903   3.8181673  40.2053833  62.6908903
   3.7251673  39.8703833  61.9888903   8.9221673  49.5483833  60.3928903
   9.6231673  49.0663833  60.5818903   8.2621673  48.9793833  60.4378903
   8.9281673  49.3933833  60.4268903   7.4891673  39.8833833  67.8688903
   7.3941673  40.2023833  68.6748903   6.8961673  39.2443833  67.8308903
   7.3871673  39.8353833  67.9828903   2.0111673  45.9073833  66.9438903
   2.0641673  46.7543833  67.1458903   1.7261673  45.5373833  67.6808903
   1.9771673  45.9773833  67.0818903   8.1881673  46.6023833  66.0738903
   7.6741673  46.1903833  66.6448903   8.0621673  47.4463833  66.2548903
   8.0941673  46.6663833  66.1848903   8.7451673  35.8273833  60.7048903
   8.7941673  35.5093833  61.5158903   9.0681673  35.1833833  60.2118903
   8.8001673  35.6853833  60.7518903  11.2091673  40.0633833  69.0128903
  11.9811673  39.8383833  69.3498903  10.7341673  40.2803833  69.7128903
  11.2531673  40.0623833  69.1658903  11.4411673  47.0413833  56.2008903
  11.5601673  46.7543833  57.0158903  12.2481673  47.0623833  55.8708903
  11.5771673  47.0023833  56.2728903  13.6751673  51.5503833  70.4548903
  12.9931673  51.8603833  70.0078903  13.3061673  51.0923833  71.0998903
  13.5191673  51.5283833  70.4838903   9.3361673  43.5783833  55.7858903
   9.1161673  44.3093833  55.3638903   8.8881673  43.6293833  56.5328903
   9.2371673  43.6933833  55.8338903  13.5231673  38.4393833  55.2388903
  12.8611673  37.8713833  55.2618903  13.3301673  38.9513833  54.5588903
  13.3971673  38.4313833  55.1418903   2.7481673  42.1333833  73.1828903
   2.2641673  42.7103833  73.6248903   2.7201673  42.4283833  72.3618903
   2.6721673  42.2623833  73.1268903  13.8461673  42.8173833  67.7948903
  14.0611673  42.0173833  67.5188903  12.9961673  42.8773833  67.6058903
  13.7521673  42.7083833  67.7258903  11.5251673  37.9973833  57.5178903
  12.2711673  37.5903833  57.7168903  11.7881673  38.7123833  57.0928903
  11.6741673  38.0433833  57.4848903   5.4681673  50.4833833  62.0938903
   4.9451673  51.1173833  61.8008903   5.7781673  50.1193833  61.3648903
   5.4361673  50.5233833  61.9428903   7.9791673  40.2853833  62.5908903
   8.3231673  40.4373833  63.3778903   7.5261673  39.5473833  62.7038903
   7.9631673  40.1983833  62.7238903   2.4551673  39.5053833  57.0478903
   2.4531673  39.3883833  56.1828903   2.2741673  40.3533833  57.1398903
   2.4281673  39.6133833  56.9338903  11.5091673  51.9323833  68.5448903
  10.8381673  52.4463833  68.7628903  11.5721673  52.0323833  67.6808903
  11.4191673  52.0233833  68.4498903   9.3001673  41.6173833  65.1448903
   8.6381673  41.9453833  65.6078903   9.4871673  42.2513833  64.5758903
   9.2301673  41.7593833  65.1288903   3.5051673  52.6813833  66.1408903
   3.2281673  52.0403833  65.6178903   3.2971673  53.4073833  65.7028903
   3.4341673  52.6943833  65.9988903   5.9451673  37.5233833  68.5738903
   6.0941673  36.6983833  68.3308903   6.3241673  37.5783833  69.3578903
   6.0231673  37.4093833  68.6538903   7.4931673  39.5863833  58.6558903
   7.9831673  40.3033833  58.5788903   6.7031673  39.8473833  58.3928903
   7.4491673  39.7303833  58.6058903   8.8071673  47.4643833  70.5658903
   9.2911673  48.1823833  70.6638903   9.2011673  47.0373833  69.9148903
   8.9371673  47.5073833  70.4838903   3.1031673  50.3093833  71.7428903
   3.4571673  50.1313833  72.5198903   2.6671673  49.5803833  71.5438903
   3.0911673  50.1753833  71.8288903   4.0751673  41.0563833  64.3808903
   4.5551673  41.7553833  64.5888903   4.4481673  40.4093833  64.8318903
   4.2011673  41.0643833  64.4778903   6.2641673  44.2253833  56.6548903
   6.2561673  44.9473833  56.1648903   5.6251673  44.3603833  57.2318903
   6.1691673  44.3523833  56.6678903  11.2361673  48.0953833  60.6358903
  11.5921673  47.7453833  61.3508903  11.2281673  47.4343833  60.0658903
  11.2881673  47.9453833  60.6568903   7.2811673  51.1613833  64.4798903
   6.6781673  50.8653833  63.9228903   7.8261673  51.6133833  63.9708903
   7.2721673  51.1843833  64.3218903   7.2941673  48.0123833  63.8798903
   6.4971673  48.2363833  64.1538903   7.5521673  47.4183833  64.4648903
   7.2141673  47.9573833  64.0068903   3.4781673  52.3403833  56.7298903
   4.1001673  52.5033833  57.3198903   3.5141673  53.0313833  56.1978903
   3.5751673  52.4663833  56.7388903  10.5541673  46.0103833  68.7258903
  10.6091673  46.1353833  67.8638903  11.3071673  46.3303833  69.0278903
  10.6731673  46.0753833  68.6428903   6.7451673  51.3593833  73.0028903
   6.9091673  51.6423833  73.8118903   7.0081673  52.0203833  72.4978903
   6.8081673  51.4993833  73.0478903  11.5861673  36.3083833  71.7128903
  10.9491673  35.9083833  71.2708903  11.6121673  35.8773833  72.4708903
  11.4961673  36.1863833  71.7588903   6.2851673  45.8163833  68.3258903
   6.1301673  46.4263833  68.9298903   6.8191673  45.2583833  68.7318903
   6.3411673  45.8243833  68.4748903   4.6691673  44.2163833  58.9838903
   4.7281673  44.8663833  59.5628903   4.4801673  43.5203833  59.4748903
   4.6501673  44.2093833  59.1418903   9.8951673  48.5453833  64.8528903
   9.4161673  48.8433833  64.1868903   9.5391673  47.7693833  65.0308903
   9.7721673  48.4743833  64.7808903   3.8921673  46.2633833  63.4148903
   3.0451673  46.0693833  63.4958903   4.2161673  46.0983833  64.2078903
   3.8141673  46.2103833  63.5438903  13.5871673  52.7113833  56.7928903
  14.2811673  52.2443833  56.5448903  13.0481673  52.1133833  57.1298903
  13.6101673  52.5533833  56.8058903  10.8261673  45.4873833  65.9718903
  10.8191673  44.7113833  66.3698903   9.9851673  45.7213833  65.9648903
  10.7011673  45.4073833  66.0298903  12.0821673  45.5583833  63.4088903
  11.7961673  45.9593833  64.1288903  12.9421673  45.4963833  63.5358903
  12.1671673  45.6083833  63.5338903   9.7441673  39.4823833  71.9488903
   9.2191673  39.9413833  72.4728903   9.3831673  38.6873833  71.9428903
   9.6131673  39.4323833  72.0248903  13.2131673  51.1913833  63.9378903
  13.5031673  51.4483833  63.1568903  13.9081673  51.2873833  64.4568903
  13.3591673  51.2433833  63.8988903   8.2361673  43.0513833  72.0248903
   8.3091673  43.1553833  72.8878903   7.6021673  43.6093833  71.8038903
   8.1531673  43.1493833  72.1198903  10.5041673  43.3703833  70.3898903
  10.8231673  44.1563833  70.5928903  10.1341673  43.1003833  71.1328903
  10.4971673  43.4463833  70.5298903   9.8181673  49.7943833  55.9198903
  10.1521673  48.9883833  55.9548903   9.0631673  49.7223833  56.3498903
   9.7561673  49.6643833  55.9888903  10.3001673  41.6283833  61.5788903
   9.5551673  41.3053833  61.8968903  10.3021673  42.4543833  61.8588903
  10.1901673  41.7023833  61.6668903  13.2021673  43.9123833  73.1248903
  13.1501673  43.5713833  72.3238903  13.9391673  44.3793833  73.1028903
  13.3031673  43.9313833  73.0028903  12.7401673  47.5883833  69.3308903
  13.3681673  47.0393833  69.0748903  12.6791673  48.1533833  68.6688903
  12.8241673  47.5913833  69.1948903   7.1921673  47.6693833  55.3228903
   7.8761673  47.1553833  55.1538903   6.7751673  47.7153833  54.5578903
   7.2311673  47.6003833  55.1848903   9.2121673  37.9583833  69.0398903
   9.9561673  38.4103833  68.9768903   8.6461673  38.4283833  68.5708903
   9.2391673  38.0953833  68.9618903   4.3901673  45.2423833  66.1178903
   4.8661673  45.6163833  66.7458903   3.5671673  45.3763833  66.3768903
   4.3391673  45.3173833  66.2488903   3.6541673  52.6353833  61.3458903
   4.2001673  53.3143833  61.3998903   3.3041673  52.7173833  60.5508903
   3.6831673  52.7483833  61.2358903  10.4971673  35.9383833  66.7098903
  10.2171673  36.7633833  66.6658903  11.2131673  35.9913833  67.2058903
  10.5621673  36.0683833  66.7768903   2.8521673  36.6533833  68.7388903
   3.5571673  36.9733833  68.3368903   3.0931673  35.8463833  68.9658903
   2.9911673  36.5813833  68.7128903   6.1461673  47.4973833  71.7238903
   6.9031673  47.7833833  71.3978903   5.5991673  47.5493833  71.0458903
   6.1771673  47.5473833  71.5748903  10.0551673  50.0473833  70.2278903
  10.4011673  50.3173833  70.9818903  10.3491673  50.6293833  69.6478903
  10.1501673  50.1733833  70.2538903  11.9181673  42.1933833  55.5668903
  12.2961673  42.8703833  55.1668903  11.0761673  42.4173833  55.5978903
  11.8491673  42.3263833  55.5118903   3.4311673  45.6393833  54.6498903
   2.6261673  45.4623833  54.3648903   3.3981673  46.4903833  54.8418903
   3.3071673  45.7383833  54.6368903   7.3771673  40.8083833  70.3918903
   6.7291673  41.2783833  70.7398903   7.9421673  40.7193833  71.0508903
   7.3651673  40.8643833  70.5408903   7.0651673  42.3453833  66.6898903
   7.3671673  42.7653833  67.3928903   7.1011673  41.5053833  66.9218903
   7.1151673  42.2833833  66.8278903   4.4901673  52.5123833  70.6148903
   4.9681673  51.9123833  70.1988903   4.1391673  52.0693833  71.2798903
   4.5091673  52.3583833  70.6518903   9.6131673  41.7923833  58.9418903
   9.8201673  41.5913833  59.7658903  10.3691673  42.0603833  58.5998903
   9.7551673  41.8023833  59.0128903   2.9081673  36.6913833  64.8468903
   2.0821673  36.5423833  65.0838903   2.8681673  36.7263833  63.9758903
   2.7801673  36.6743833  64.7528903  10.6351673  37.8753833  60.4158903
   9.9211673  37.4043833  60.5868903  10.4731673  38.2163833  59.6298903
  10.5061673  37.8563833  60.3248903  11.0781673  45.8193833  58.7958903
  11.5541673  45.0903833  58.7478903  10.2571673  45.5333833  58.7198903
  11.0271673  45.6693833  58.7768903   4.5491673  47.7313833  69.6348903
   3.7541673  47.6673833  69.9858903   4.6201673  48.5783833  69.4398903
   4.4421673  47.8463833  69.6578903   7.2941673  46.9863833  61.1508903
   7.3701673  47.3273833  61.9498903   7.4631673  46.1393833  61.2718903
   7.3301673  46.9113833  61.2868903   4.8161673  46.2603833  60.7158903
   4.5181673  45.9453833  61.4728903   5.5111673  46.7333833  60.9508903
   4.8751673  46.2833833  60.8628903   5.0381673  50.3783833  68.7428903
   5.7251673  50.2643833  69.2678903   5.1721673  51.1693833  68.3988903
   5.1591673  50.4783833  68.7698903  13.2141673  42.9873833  70.5538903
  12.3591673  42.8653833  70.6798903  13.3671673  42.5923833  69.7908903
  13.1101673  42.9103833  70.4598903   7.7271673  43.6523833  69.1298903
   7.4721673  42.9333833  69.5518903   8.5481673  43.7683833  69.3998903
   7.8111673  43.5633833  69.2318903   5.6611673  44.8423833  72.3168903
   5.9841673  45.5283833  71.8848903   4.9571673  45.1653833  72.7188903
   5.6041673  44.9913833  72.3118903   8.7451673  53.2163833  63.2458903
   8.2941673  53.8593833  63.6248903   9.4531673  53.1373833  63.7508903
   8.7831673  53.2993833  63.3768903   5.4461673  48.3063833  66.1758903
   4.7521673  48.7083833  66.5188903   6.1231673  48.7393833  66.5148903
   5.4431673  48.4293833  66.2768903  10.8231673  50.8993833  72.7558903
  11.5991673  50.5093833  72.8388903  10.3541673  50.5633833  73.4108903
  10.8681673  50.7923833  72.8648903  11.8481673  42.9323833  58.2378903
  11.9511673  42.8743833  57.3738903  12.5891673  42.6003833  58.5558903
  11.9731673  42.8753833  58.1568903   5.7681673  49.8973833  59.3448903
   5.5631673  50.7303833  59.1858903   4.9931673  49.5153833  59.4668903
   5.6231673  49.9643833  59.3398903  10.9501673  43.0783833  67.5938903
  10.9481673  42.2153833  67.7178903  11.0171673  43.4023833  68.4008903
  10.9601673  42.9983833  67.7308903   6.8291673  37.8783833  71.3758903
   6.9211673  38.5903833  71.8698903   6.1921673  37.4333833  71.7728903
   6.7481673  37.9173833  71.5078903   5.8231673  38.0683833  62.2298903
   5.1231673  38.5863833  62.1738903   5.8611673  37.6883833  61.4458903
   5.7251673  38.0893833  62.1058903   9.4211673  38.5843833  65.0298903
  10.2761673  38.6833833  65.1748903   9.0521673  39.1373833  65.5948903
   9.4931673  38.6813833  65.1348903   9.7251673  43.8643833  63.5208903
  10.3911673  44.4053833  63.6808903   9.3801673  44.1753833  62.7818903
   9.7721673  43.9903833  63.4358903  10.0381673  51.9303833  59.3278903
   9.8641673  51.2763833  59.8778903  10.7511673  51.6593833  58.9048903
  10.1181673  51.7933833  59.3468903  12.8961673  36.4223833  68.1858903
  12.8441673  36.3783833  69.0558903  13.5831673  35.9193833  67.9958903
  12.9901673  36.3423833  68.2858903   4.9811673  38.5353833  65.2308903
   4.2441673  38.0813833  65.3438903   5.5521673  38.1333833  65.7538903
   4.9561673  38.4083833  65.3248903   7.7131673  49.3833833  67.0188903
   7.9191673  49.6843833  67.8108903   7.6521673  50.1053833  66.5338903
   7.7341673  49.5343833  67.0638903   7.2471673  53.5973833  71.2648903
   6.4941673  53.5793833  70.8238903   7.4151673  54.4493833  71.3488903
   7.1611673  53.7203833  71.2118903   2.4841673  42.8643833  70.4348903
   2.1621673  42.2883833  69.8648903   2.1251673  43.6193833  70.1888903
   2.3841673  42.8903833  70.3148903   3.2801673  36.1163833  55.0618903
   3.3581673  36.3633833  54.2288903   2.5371673  36.4933833  55.3198903
   3.1821673  36.2083833  54.9768903  12.5251673  48.0223833  66.4768903
  12.4931673  47.1603833  66.3418903  11.8321673  48.3243833  66.0428903
  12.4181673  47.9393833  66.3928903  10.6301673  51.2823833  65.2738903
  11.1571673  51.1993833  64.5828903  10.2391673  50.5043833  65.3278903
  10.6501673  51.1553833  65.1798903   7.1441673  36.7263833  64.4818903
   7.8141673  37.2703833  64.6088903   6.6411673  37.1503833  63.9088903
   7.1691673  36.8693833  64.4158903   6.5031673  42.5343833  61.9748903
   7.0541673  41.9273833  62.2748903   6.0781673  42.7973833  62.6898903
   6.5221673  42.4833833  62.1238903   8.4731673  44.3653833  58.5368903
   8.5411673  43.5153833  58.7178903   7.6501673  44.4513833  58.2588903
   8.3611673  44.2523833  58.5228903   2.3921673  45.2563833  57.4748903
   2.4921673  45.3953833  56.6198903   3.2101673  45.1963833  57.7708903
   2.5271673  45.2673833  57.3918903  11.5521673  53.3203833  54.9548903
  12.1891673  53.1863833  55.5358903  11.2111673  52.5263833  54.8378903
  11.5961673  53.1833833  55.0228903  11.7471673  45.7383833  71.6878903
  12.3811673  45.5683833  72.2618903  12.1641673  46.1413833  71.0358903
  11.9021673  45.7733833  71.6768903   7.6271673  49.5853833  57.2768903
   7.3761673  49.4573833  58.1028903   7.3101673  48.8903833  56.8558903
   7.5431673  49.4643833  57.3368903  12.3721673  40.3023833  72.4258903
  12.1761673  40.9463833  72.9808903  11.6501673  39.8123833  72.4178903
  12.2371673  40.3253833  72.5068903  12.2711673  41.2433833  65.3968903
  11.4381673  41.4933833  65.3248903  12.2151673  40.4033833  65.6258903
  12.1401673  41.1563833  65.4198903   9.1581673  45.8493833  73.0428903
  10.0291673  45.8133833  73.0068903   8.9391673  46.2693833  72.3108903
   9.2551673  45.9053833  72.9298903   4.5131673  47.7933833  56.7068903
   5.2301673  47.4463833  56.3508903   4.4791673  48.5933833  56.3588903
   4.6141673  47.8603833  56.6028903   5.9221673  36.4343833  40.9456493
   5.6771673  36.9223833  40.2656493   6.7851673  36.3613833  40.8456493
   6.0131673  36.4953833  40.8306493   5.7311673  43.3503833  45.6166493
   5.2071673  43.9463833  45.9796493   6.1281673  42.9823833  46.3006493
   5.7121673  43.3843833  45.7716493  11.8751673  50.7913833  38.5876493
  12.5761673  50.2723833  38.5836493  11.2881673  50.3463833  38.1186493
  11.8921673  50.6483833  38.5176493   8.4021673  44.4173833  42.2926493
   8.4821673  44.4213833  41.4236493   7.8181673  43.7853833  42.4416493
   8.3271673  44.3243833  42.1866493   2.3911673  37.5213833  40.1006493
   2.3211673  38.1983833  39.5546493   3.1321673  37.1333833  39.8516493
   2.4901673  37.5643833  39.9826493   2.0961673  50.9423833  49.6576493
   2.2341673  51.7023833  49.2506493   2.8871673  50.5773833  49.6846493
   2.2331673  51.0013833  49.6016493   3.1911673  48.8273833  44.1626493
   3.5391673  48.0283833  44.1926493   3.8561673  49.3313833  43.9076493
   3.3411673  48.7833833  44.1296493   3.2481673  48.2763833  40.3736493
   3.5791673  47.6323833  40.8596493   3.4881673  48.0653833  39.5626493
   3.3321673  48.1503833  40.3256493   5.2161673  42.4073833  51.7126493
   4.3681673  42.3083833  51.5346493   5.2451673  43.1523833  52.1666493
   5.0951673  42.5033833  51.7536493   9.7741673  35.3673833  50.8266493
   9.6161673  36.1363833  50.4446493   9.0021673  35.1473833  51.1706493
   9.6361673  35.4483833  50.8216493   2.5631673  37.0823833  43.0416493
   2.6361673  37.9423833  43.1706493   2.5251673  37.0073833  42.1736493
   2.5681673  37.1983833  42.9326493   7.2361673  40.0083833  35.3406493
   6.7861673  40.6893833  35.6476493   7.3501673  39.5043833  36.0436493
   7.1871673  40.0343833  35.4896493   7.3351673  52.3493833  37.4446493
   8.0621673  52.8213833  37.5466493   7.5641673  51.5553833  37.7246493
   7.4771673  52.3023833  37.5016493   5.5031673  52.7413833  39.4346493
   5.7171673  53.2683833  40.0966493   6.2701673  52.5673833  39.0556493
   5.6481673  52.7933833  39.4766493   1.7771673  39.4573833  54.3316493
   1.8941673  39.0033833  53.5956493   2.0651673  40.2553833  54.1286493
   1.8371673  39.5083833  54.1926493  12.6301673  39.9813833  41.6356493
  12.2841673  40.6593833  42.0616493  11.9941673  39.3833833  41.6516493
  12.4851673  39.9933833  41.7006493   7.9421673  52.7513833  47.7396493
   8.6861673  53.2073833  47.7296493   7.8211673  52.5373833  46.9026493
   8.0341673  52.7873833  47.6146493   4.1591673  36.6973833  52.4836493
   4.3371673  35.8883833  52.2086493   4.0161673  37.1383833  51.7446493
   4.1641673  36.6433833  52.3336493   4.7531673  41.6233833  41.2566493
   5.0401673  41.3913833  40.4666493   5.4851673  41.7023833  41.7256493
   4.9031673  41.6003833  41.2096493   5.4751673  41.9623833  36.3776493
   5.7561673  42.7503833  36.6266493   4.6991673  42.1273833  36.0146493
   5.4021673  42.1033833  36.3606493   9.5161673  53.9363833  37.8446493
  10.1811673  53.7883833  37.2996493   9.8761673  53.8533833  38.6346493
   9.6681673  53.9023833  37.8806493  12.3051673  38.3043833  47.0046493
  13.0621673  38.3763833  46.5766493  12.3681673  37.5313833  47.4036493
  12.4261673  38.2013833  46.9996493   7.1961673  49.9363833  51.4436493
   7.1621673  50.3183833  52.2276493   8.0501673  49.8943833  51.2726493
   7.3171673  49.9863833  51.5346493   4.3341673  50.1333833  36.1936493
   4.1531673  50.6783833  36.8506493   5.1001673  50.4233833  35.8926493
   4.4201673  50.2573833  36.2466493   7.8411673  38.0293833  37.2476493
   8.3811673  37.3473833  37.3236493   7.9031673  38.4273833  38.0216493
   7.9301673  37.9873833  37.3736493   5.0991673  40.4053833  38.5616493
   4.5911673  39.7433833  38.3076493   5.1511673  40.9093833  37.8516493
   5.0321673  40.3823833  38.4196493   5.6481673  53.1003833  48.9416493
   6.4161673  53.0203833  48.5356493   5.0651673  52.9793833  48.3036493
   5.6751673  53.0703833  48.7876493   5.0991673  37.3463833  38.4526493
   4.6441673  36.9443833  37.8266493   5.8721673  37.5013833  38.0776493
   5.1461673  37.3103833  38.3046493  11.9251673  53.7033833  41.8426493
  11.4701673  54.4203833  42.0436493  11.3111673  53.1323833  41.6006493
  11.7671673  53.7253833  41.8366493   3.6971673  39.7133833  42.9746493
   3.7711673  40.2813833  42.3166493   3.8181673  40.2053833  43.6846493
   3.7251673  39.8703833  42.9826493   8.9221673  49.5483833  41.3866493
   9.6231673  49.0663833  41.5756493   8.2621673  48.9793833  41.4316493
   8.9281673  49.3933833  41.4206493   7.4891673  39.8833833  48.8626493
   7.3941673  40.2023833  49.6686493   6.8961673  39.2443833  48.8246493
   7.3871673  39.8353833  48.9766493   2.0111673  45.9073833  47.9376493
   2.0641673  46.7543833  48.1396493   1.7261673  45.5373833  48.6746493
   1.9771673  45.9773833  48.0756493   8.1881673  46.6023833  47.0676493
   7.6741673  46.1903833  47.6386493   8.0621673  47.4463833  47.2486493
   8.0941673  46.6663833  47.1786493   8.7451673  35.8273833  41.6986493
   8.7941673  35.5093833  42.5096493   9.0681673  35.1833833  41.2056493
   8.8001673  35.6853833  41.7456493  11.2091673  40.0633833  50.0066493
  11.9811673  39.8383833  50.3436493  10.7341673  40.2803833  50.7066493
  11.2531673  40.0623833  50.1596493  11.4411673  47.0413833  37.1946493
  11.5601673  46.7543833  38.0096493  12.2481673  47.0623833  36.8646493
  11.5771673  47.0023833  37.2666493  13.6751673  51.5503833  51.4486493
  12.9931673  51.8603833  51.0016493  13.3061673  51.0923833  52.0936493
  13.5191673  51.5283833  51.4776493   9.3361673  43.5783833  36.7796493
   9.1161673  44.3093833  36.3576493   8.8881673  43.6293833  37.5266493
   9.2371673  43.6933833  36.8276493  13.5231673  38.4393833  36.2326493
  12.8611673  37.8713833  36.2556493  13.3301673  38.9513833  35.5526493
  13.3971673  38.4313833  36.1356493   2.7481673  42.1333833  54.1766493
   2.2641673  42.7103833  54.6186493   2.7201673  42.4283833  53.3556493
   2.6721673  42.2623833  54.1206493  13.8461673  42.8173833  48.7886493
  14.0611673  42.0173833  48.5126493  12.9961673  42.8773833  48.5996493
  13.7521673  42.7083833  48.7196493  11.5251673  37.9973833  38.5116493
  12.2711673  37.5903833  38.7106493  11.7881673  38.7123833  38.0866493
  11.6741673  38.0433833  38.4786493   5.4681673  50.4833833  43.0876493
   4.9451673  51.1173833  42.7946493   5.7781673  50.1193833  42.3586493
   5.4361673  50.5233833  42.9366493   7.9791673  40.2853833  43.5846493
   8.3231673  40.4373833  44.3716493   7.5261673  39.5473833  43.6976493
   7.9631673  40.1983833  43.7176493   2.4551673  39.5053833  38.0416493
   2.4531673  39.3883833  37.1766493   2.2741673  40.3533833  38.1336493
   2.4281673  39.6133833  37.9276493  11.5091673  51.9323833  49.5386493
  10.8381673  52.4463833  49.7566493  11.5721673  52.0323833  48.6746493
  11.4191673  52.0233833  49.4436493   9.3001673  41.6173833  46.1386493
   8.6381673  41.9453833  46.6016493   9.4871673  42.2513833  45.5696493
   9.2301673  41.7593833  46.1226493   3.5051673  52.6813833  47.1346493
   3.2281673  52.0403833  46.6116493   3.2971673  53.4073833  46.6966493
   3.4341673  52.6943833  46.9926493   5.9451673  37.5233833  49.5676493
   6.0941673  36.6983833  49.3246493   6.3241673  37.5783833  50.3516493
   6.0231673  37.4093833  49.6476493   7.4931673  39.5863833  39.6496493
   7.9831673  40.3033833  39.5726493   6.7031673  39.8473833  39.3866493
   7.4491673  39.7303833  39.5996493   8.8071673  47.4643833  51.5596493
   9.2911673  48.1823833  51.6576493   9.2011673  47.0373833  50.9086493
   8.9371673  47.5073833  51.4776493   3.1031673  50.3093833  52.7366493
   3.4571673  50.1313833  53.5136493   2.6671673  49.5803833  52.5376493
   3.0911673  50.1753833  52.8226493   4.0751673  41.0563833  45.3746493
   4.5551673  41.7553833  45.5826493   4.4481673  40.4093833  45.8256493
   4.2011673  41.0643833  45.4716493   6.2641673  44.2253833  37.6486493
   6.2561673  44.9473833  37.1586493   5.6251673  44.3603833  38.2256493
   6.1691673  44.3523833  37.6616493  11.2361673  48.0953833  41.6296493
  11.5921673  47.7453833  42.3446493  11.2281673  47.4343833  41.0596493
  11.2881673  47.9453833  41.6506493   7.2811673  51.1613833  45.4736493
   6.6781673  50.8653833  44.9166493   7.8261673  51.6133833  44.9646493
   7.2721673  51.1843833  45.3156493   7.2941673  48.0123833  44.8736493
   6.4971673  48.2363833  45.1476493   7.5521673  47.4183833  45.4586493
   7.2141673  47.9573833  45.0006493   3.4781673  52.3403833  37.7236493
   4.1001673  52.5033833  38.3136493   3.5141673  53.0313833  37.1916493
   3.5751673  52.4663833  37.7326493  10.5541673  46.0103833  49.7196493
  10.6091673  46.1353833  48.8576493  11.3071673  46.3303833  50.0216493
  10.6731673  46.0753833  49.6366493   6.7451673  51.3593833  53.9966493
   6.9091673  51.6423833  54.8056493   7.0081673  52.0203833  53.4916493
   6.8081673  51.4993833  54.0416493  11.5861673  36.3083833  52.7066493
  10.9491673  35.9083833  52.2646493  11.6121673  35.8773833  53.4646493
  11.4961673  36.1863833  52.7526493   6.2851673  45.8163833  49.3196493
   6.1301673  46.4263833  49.9236493   6.8191673  45.2583833  49.7256493
   6.3411673  45.8243833  49.4686493   4.6691673  44.2163833  39.9776493
   4.7281673  44.8663833  40.5566493   4.4801673  43.5203833  40.4686493
   4.6501673  44.2093833  40.1356493   9.8951673  48.5453833  45.8466493
   9.4161673  48.8433833  45.1806493   9.5391673  47.7693833  46.0246493
   9.7721673  48.4743833  45.7746493   3.8921673  46.2633833  44.4086493
   3.0451673  46.0693833  44.4896493   4.2161673  46.0983833  45.2016493
   3.8141673  46.2103833  44.5376493  13.5871673  52.7113833  37.7866493
  14.2811673  52.2443833  37.5386493  13.0481673  52.1133833  38.1236493
  13.6101673  52.5533833  37.7996493  10.8261673  45.4873833  46.9656493
  10.8191673  44.7113833  47.3636493   9.9851673  45.7213833  46.9586493
  10.7011673  45.4073833  47.0236493  12.0821673  45.5583833  44.4026493
  11.7961673  45.9593833  45.1226493  12.9421673  45.4963833  44.5296493
  12.1671673  45.6083833  44.5276493   9.7441673  39.4823833  52.9426493
   9.2191673  39.9413833  53.4666493   9.3831673  38.6873833  52.9366493
   9.6131673  39.4323833  53.0186493  13.2131673  51.1913833  44.9316493
  13.5031673  51.4483833  44.1506493  13.9081673  51.2873833  45.4506493
  13.3591673  51.2433833  44.8926493   8.2361673  43.0513833  53.0186493
   8.3091673  43.1553833  53.8816493   7.6021673  43.6093833  52.7976493
   8.1531673  43.1493833  53.1136493  10.5041673  43.3703833  51.3836493
  10.8231673  44.1563833  51.5866493  10.1341673  43.1003833  52.1266493
  10.4971673  43.4463833  51.5236493   9.8181673  49.7943833  36.9136493
  10.1521673  48.9883833  36.9486493   9.0631673  49.7223833  37.3436493
   9.7561673  49.6643833  36.9826493  10.3001673  41.6283833  42.5726493
   9.5551673  41.3053833  42.8906493  10.3021673  42.4543833  42.8526493
  10.1901673  41.7023833  42.6606493  13.2021673  43.9123833  54.1186493
  13.1501673  43.5713833  53.3176493  13.9391673  44.3793833  54.0966493
  13.3031673  43.9313833  53.9966493  12.7401673  47.5883833  50.3246493
  13.3681673  47.0393833  50.0686493  12.6791673  48.1533833  49.6626493
  12.8241673  47.5913833  50.1886493   7.1921673  47.6693833  36.3166493
   7.8761673  47.1553833  36.1476493   6.7751673  47.7153833  35.5516493
   7.2311673  47.6003833  36.1786493   9.2121673  37.9583833  50.0336493
   9.9561673  38.4103833  49.9706493   8.6461673  38.4283833  49.5646493
   9.2391673  38.0953833  49.9556493   4.3901673  45.2423833  47.1116493
   4.8661673  45.6163833  47.7396493   3.5671673  45.3763833  47.3706493
   4.3391673  45.3173833  47.2426493   3.6541673  52.6353833  42.3396493
   4.2001673  53.3143833  42.3936493   3.3041673  52.7173833  41.5446493
   3.6831673  52.7483833  42.2296493  10.4971673  35.9383833  47.7036493
  10.2171673  36.7633833  47.6596493  11.2131673  35.9913833  48.1996493
  10.5621673  36.0683833  47.7706493   2.8521673  36.6533833  49.7326493
   3.5571673  36.9733833  49.3306493   3.0931673  35.8463833  49.9596493
   2.9911673  36.5813833  49.7066493   6.1461673  47.4973833  52.7176493
   6.9031673  47.7833833  52.3916493   5.5991673  47.5493833  52.0396493
   6.1771673  47.5473833  52.5686493  10.0551673  50.0473833  51.2216493
  10.4011673  50.3173833  51.9756493  10.3491673  50.6293833  50.6416493
  10.1501673  50.1733833  51.2476493  11.9181673  42.1933833  36.5606493
  12.2961673  42.8703833  36.1606493  11.0761673  42.4173833  36.5916493
  11.8491673  42.3263833  36.5056493   3.4311673  45.6393833  35.6436493
   2.6261673  45.4623833  35.3586493   3.3981673  46.4903833  35.8356493
   3.3071673  45.7383833  35.6306493   7.3771673  40.8083833  51.3856493
   6.7291673  41.2783833  51.7336493   7.9421673  40.7193833  52.0446493
   7.3651673  40.8643833  51.5346493   7.0651673  42.3453833  47.6836493
   7.3671673  42.7653833  48.3866493   7.1011673  41.5053833  47.9156493
   7.1151673  42.2833833  47.8216493   4.4901673  52.5123833  51.6086493
   4.9681673  51.9123833  51.1926493   4.1391673  52.0693833  52.2736493
   4.5091673  52.3583833  51.6456493   9.6131673  41.7923833  39.9356493
   9.8201673  41.5913833  40.7596493  10.3691673  42.0603833  39.5936493
   9.7551673  41.8023833  40.0066493   2.9081673  36.6913833  45.8406493
   2.0821673  36.5423833  46.0776493   2.8681673  36.7263833  44.9696493
   2.7801673  36.6743833  45.7466493  10.6351673  37.8753833  41.4096493
   9.9211673  37.4043833  41.5806493  10.4731673  38.2163833  40.6236493
  10.5061673  37.8563833  41.3186493  11.0781673  45.8193833  39.7896493
  11.5541673  45.0903833  39.7416493  10.2571673  45.5333833  39.7136493
  11.0271673  45.6693833  39.7706493   4.5491673  47.7313833  50.6286493
   3.7541673  47.6673833  50.9796493   4.6201673  48.5783833  50.4336493
   4.4421673  47.8463833  50.6516493   7.2941673  46.9863833  42.1446493
   7.3701673  47.3273833  42.9436493   7.4631673  46.1393833  42.2656493
   7.3301673  46.9113833  42.2806493   4.8161673  46.2603833  41.7096493
   4.5181673  45.9453833  42.4666493   5.5111673  46.7333833  41.9446493
   4.8751673  46.2833833  41.8566493   5.0381673  50.3783833  49.7366493
   5.7251673  50.2643833  50.2616493   5.1721673  51.1693833  49.3926493
   5.1591673  50.4783833  49.7636493  13.2141673  42.9873833  51.5476493
  12.3591673  42.8653833  51.6736493  13.3671673  42.5923833  50.7846493
  13.1101673  42.9103833  51.4536493   7.7271673  43.6523833  50.1236493
   7.4721673  42.9333833  50.5456493   8.5481673  43.7683833  50.3936493
   7.8111673  43.5633833  50.2256493   5.6611673  44.8423833  53.3106493
   5.9841673  45.5283833  52.8786493   4.9571673  45.1653833  53.7126493
   5.6041673  44.9913833  53.3056493   8.7451673  53.2163833  44.2396493
   8.2941673  53.8593833  44.6186493   9.4531673  53.1373833  44.7446493
   8.7831673  53.2993833  44.3706493   5.4461673  48.3063833  47.1696493
   4.7521673  48.7083833  47.5126493   6.1231673  48.7393833  47.5086493
   5.4431673  48.4293833  47.2706493  10.8231673  50.8993833  53.7496493
  11.5991673  50.5093833  53.8326493  10.3541673  50.5633833  54.4046493
  10.8681673  50.7923833  53.8586493  11.8481673  42.9323833  39.2316493
  11.9511673  42.8743833  38.3676493  12.5891673  42.6003833  39.5496493
  11.9731673  42.8753833  39.1506493   5.7681673  49.8973833  40.3386493
   5.5631673  50.7303833  40.1796493   4.9931673  49.5153833  40.4606493
   5.6231673  49.9643833  40.3336493  10.9501673  43.0783833  48.5876493
  10.9481673  42.2153833  48.7116493  11.0171673  43.4023833  49.3946493
  10.9601673  42.9983833  48.7246493   6.8291673  37.8783833  52.3696493
   6.9211673  38.5903833  52.8636493   6.1921673  37.4333833  52.7666493
   6.7481673  37.9173833  52.5016493   5.8231673  38.0683833  43.2236493
   5.1231673  38.5863833  43.1676493   5.8611673  37.6883833  42.4396493
   5.7251673  38.0893833  43.0996493   9.4211673  38.5843833  46.0236493
  10.2761673  38.6833833  46.1686493   9.0521673  39.1373833  46.5886493
   9.4931673  38.6813833  46.1286493   9.7251673  43.8643833  44.5146493
  10.3911673  44.4053833  44.6746493   9.3801673  44.1753833  43.7756493
   9.7721673  43.9903833  44.4296493  10.0381673  51.9303833  40.3216493
   9.8641673  51.2763833  40.8716493  10.7511673  51.6593833  39.8986493
  10.1181673  51.7933833  40.3406493  12.8961673  36.4223833  49.1796493
  12.8441673  36.3783833  50.0496493  13.5831673  35.9193833  48.9896493
  12.9901673  36.3423833  49.2796493   4.9811673  38.5353833  46.2246493
   4.2441673  38.0813833  46.3376493   5.5521673  38.1333833  46.7476493
   4.9561673  38.4083833  46.3186493   7.7131673  49.3833833  48.0126493
   7.9191673  49.6843833  48.8046493   7.6521673  50.1053833  47.5276493
   7.7341673  49.5343833  48.0576493   7.2471673  53.5973833  52.2586493
   6.4941673  53.5793833  51.8176493   7.4151673  54.4493833  52.3426493
   7.1611673  53.7203833  52.2056493   2.4841673  42.8643833  51.4286493
   2.1621673  42.2883833  50.8586493   2.1251673  43.6193833  51.1826493
   2.3841673  42.8903833  51.3086493   3.2801673  36.1163833  36.0556493
   3.3581673  36.3633833  35.2226493   2.5371673  36.4933833  36.3136493
   3.1821673  36.2083833  35.9706493  12.5251673  48.0223833  47.4706493
  12.4931673  47.1603833  47.3356493  11.8321673  48.3243833  47.0366493
  12.4181673  47.9393833  47.3866493  10.6301673  51.2823833  46.2676493
  11.1571673  51.1993833  45.5766493  10.2391673  50.5043833  46.3216493
  10.6501673  51.1553833  46.1736493   7.1441673  36.7263833  45.4756493
   7.8141673  37.2703833  45.6026493   6.6411673  37.1503833  44.9026493
   7.1691673  36.8693833  45.4096493   6.5031673  42.5343833  42.9686493
   7.0541673  41.9273833  43.2686493   6.0781673  42.7973833  43.6836493
   6.5221673  42.4833833  43.1176493   8.4731673  44.3653833  39.5306493
   8.5411673  43.5153833  39.7116493   7.6501673  44.4513833  39.2526493
   8.3611673  44.2523833  39.5166493   2.3921673  45.2563833  38.4686493
   2.4921673  45.3953833  37.6136493   3.2101673  45.1963833  38.7646493
   2.5271673  45.2673833  38.3856493  11.5521673  53.3203833  35.9486493
  12.1891673  53.1863833  36.5296493  11.2111673  52.5263833  35.8316493
  11.5961673  53.1833833  36.0166493  11.7471673  45.7383833  52.6816493
  12.3811673  45.5683833  53.2556493  12.1641673  46.1413833  52.0296493
  11.9021673  45.7733833  52.6706493   7.6271673  49.5853833  38.2706493
   7.3761673  49.4573833  39.0966493   7.3101673  48.8903833  37.8496493
   7.5431673  49.4643833  38.3306493  12.3721673  40.3023833  53.4196493
  12.1761673  40.9463833  53.9746493  11.6501673  39.8123833  53.4116493
  12.2371673  40.3253833  53.5006493  12.2711673  41.2433833  46.3906493
  11.4381673  41.4933833  46.3186493  12.2151673  40.4033833  46.6196493
  12.1401673  41.1563833  46.4136493   9.1581673  45.8493833  54.0366493
  10.0291673  45.8133833  54.0006493   8.9391673  46.2693833  53.3046493
   9.2551673  45.9053833  53.9236493   4.5131673  47.7933833  37.7006493
   5.2301673  47.4463833  37.3446493   4.4791673  48.5933833  37.3526493
   4.6141673  47.8603833  37.5966493   5.9221673  36.4343833  21.9394083
   5.6771673  36.9223833  21.2594083   6.7851673  36.3613833  21.8394083
   6.0131673  36.4953833  21.8244083   5.7311673  43.3503833  26.6104083
   5.2071673  43.9463833  26.9734083   6.1281673  42.9823833  27.2944083
   5.7121673  43.3843833  26.7654083  11.8751673  50.7913833  19.5814083
  12.5761673  50.2723833  19.5774083  11.2881673  50.3463833  19.1124083
  11.8921673  50.6483833  19.5114083   8.4021673  44.4173833  23.2864083
   8.4821673  44.4213833  22.4174083   7.8181673  43.7853833  23.4354083
   8.3271673  44.3243833  23.1804083   2.3911673  37.5213833  21.0944083
   2.3211673  38.1983833  20.5484083   3.1321673  37.1333833  20.8454083
   2.4901673  37.5643833  20.9764083   2.0961673  50.9423833  30.6514083
   2.2341673  51.7023833  30.2444083   2.8871673  50.5773833  30.6784083
   2.2331673  51.0013833  30.5954083   3.1911673  48.8273833  25.1564083
   3.5391673  48.0283833  25.1864083   3.8561673  49.3313833  24.9014083
   3.3411673  48.7833833  25.1234083   3.2481673  48.2763833  21.3674083
   3.5791673  47.6323833  21.8534083   3.4881673  48.0653833  20.5564083
   3.3321673  48.1503833  21.3194083   5.2161673  42.4073833  32.7064083
   4.3681673  42.3083833  32.5284083   5.2451673  43.1523833  33.1604083
   5.0951673  42.5033833  32.7474083   9.7741673  35.3673833  31.8204083
   9.6161673  36.1363833  31.4384083   9.0021673  35.1473833  32.1644083
   9.6361673  35.4483833  31.8154083   2.5631673  37.0823833  24.0354083
   2.6361673  37.9423833  24.1644083   2.5251673  37.0073833  23.1674083
   2.5681673  37.1983833  23.9264083   7.2361673  40.0083833  16.3344083
   6.7861673  40.6893833  16.6414083   7.3501673  39.5043833  17.0374083
   7.1871673  40.0343833  16.4834083   7.3351673  52.3493833  18.4384083
   8.0621673  52.8213833  18.5404083   7.5641673  51.5553833  18.7184083
   7.4771673  52.3023833  18.4954083   5.5031673  52.7413833  20.4284083
   5.7171673  53.2683833  21.0904083   6.2701673  52.5673833  20.0494083
   5.6481673  52.7933833  20.4704083   1.7771673  39.4573833  35.3254083
   1.8941673  39.0033833  34.5894083   2.0651673  40.2553833  35.1224083
   1.8371673  39.5083833  35.1864083  12.6301673  39.9813833  22.6294083
  12.2841673  40.6593833  23.0554083  11.9941673  39.3833833  22.6454083
  12.4851673  39.9933833  22.6944083   7.9421673  52.7513833  28.7334083
   8.6861673  53.2073833  28.7234083   7.8211673  52.5373833  27.8964083
   8.0341673  52.7873833  28.6084083   4.1591673  36.6973833  33.4774083
   4.3371673  35.8883833  33.2024083   4.0161673  37.1383833  32.7384083
   4.1641673  36.6433833  33.3274083   4.7531673  41.6233833  22.2504083
   5.0401673  41.3913833  21.4604083   5.4851673  41.7023833  22.7194083
   4.9031673  41.6003833  22.2034083   5.4751673  41.9623833  17.3714083
   5.7561673  42.7503833  17.6204083   4.6991673  42.1273833  17.0084083
   5.4021673  42.1033833  17.3544083   9.5161673  53.9363833  18.8384083
  10.1811673  53.7883833  18.2934083   9.8761673  53.8533833  19.6284083
   9.6681673  53.9023833  18.8744083  12.3051673  38.3043833  27.9984083
  13.0621673  38.3763833  27.5704083  12.3681673  37.5313833  28.3974083
  12.4261673  38.2013833  27.9934083   7.1961673  49.9363833  32.4374083
   7.1621673  50.3183833  33.2214083   8.0501673  49.8943833  32.2664083
   7.3171673  49.9863833  32.5284083   4.3341673  50.1333833  17.1874083
   4.1531673  50.6783833  17.8444083   5.1001673  50.4233833  16.8864083
   4.4201673  50.2573833  17.2404083   7.8411673  38.0293833  18.2414083
   8.3811673  37.3473833  18.3174083   7.9031673  38.4273833  19.0154083
   7.9301673  37.9873833  18.3674083   5.0991673  40.4053833  19.5554083
   4.5911673  39.7433833  19.3014083   5.1511673  40.9093833  18.8454083
   5.0321673  40.3823833  19.4134083   5.6481673  53.1003833  29.9354083
   6.4161673  53.0203833  29.5294083   5.0651673  52.9793833  29.2974083
   5.6751673  53.0703833  29.7814083   5.0991673  37.3463833  19.4464083
   4.6441673  36.9443833  18.8204083   5.8721673  37.5013833  19.0714083
   5.1461673  37.3103833  19.2984083  11.9251673  53.7033833  22.8364083
  11.4701673  54.4203833  23.0374083  11.3111673  53.1323833  22.5944083
  11.7671673  53.7253833  22.8304083   3.6971673  39.7133833  23.9684083
   3.7711673  40.2813833  23.3104083   3.8181673  40.2053833  24.6784083
   3.7251673  39.8703833  23.9764083   8.9221673  49.5483833  22.3804083
   9.6231673  49.0663833  22.5694083   8.2621673  48.9793833  22.4254083
   8.9281673  49.3933833  22.4144083   7.4891673  39.8833833  29.8564083
   7.3941673  40.2023833  30.6624083   6.8961673  39.2443833  29.8184083
   7.3871673  39.8353833  29.9704083   2.0111673  45.9073833  28.9314083
   2.0641673  46.7543833  29.1334083   1.7261673  45.5373833  29.6684083
   1.9771673  45.9773833  29.0694083   8.1881673  46.6023833  28.0614083
   7.6741673  46.1903833  28.6324083   8.0621673  47.4463833  28.2424083
   8.0941673  46.6663833  28.1724083   8.7451673  35.8273833  22.6924083
   8.7941673  35.5093833  23.5034083   9.0681673  35.1833833  22.1994083
   8.8001673  35.6853833  22.7394083  11.2091673  40.0633833  31.0004083
  11.9811673  39.8383833  31.3374083  10.7341673  40.2803833  31.7004083
  11.2531673  40.0623833  31.1534083  11.4411673  47.0413833  18.1884083
  11.5601673  46.7543833  19.0034083  12.2481673  47.0623833  17.8584083
  11.5771673  47.0023833  18.2604083  13.6751673  51.5503833  32.4424083
  12.9931673  51.8603833  31.9954083  13.3061673  51.0923833  33.0874083
  13.5191673  51.5283833  32.4714083   9.3361673  43.5783833  17.7734083
   9.1161673  44.3093833  17.3514083   8.8881673  43.6293833  18.5204083
   9.2371673  43.6933833  17.8214083  13.5231673  38.4393833  17.2264083
  12.8611673  37.8713833  17.2494083  13.3301673  38.9513833  16.5464083
  13.3971673  38.4313833  17.1294083   2.7481673  42.1333833  35.1704083
   2.2641673  42.7103833  35.6124083   2.7201673  42.4283833  34.3494083
   2.6721673  42.2623833  35.1144083  13.8461673  42.8173833  29.7824083
  14.0611673  42.0173833  29.5064083  12.9961673  42.8773833  29.5934083
  13.7521673  42.7083833  29.7134083  11.5251673  37.9973833  19.5054083
  12.2711673  37.5903833  19.7044083  11.7881673  38.7123833  19.0804083
  11.6741673  38.0433833  19.4724083   5.4681673  50.4833833  24.0814083
   4.9451673  51.1173833  23.7884083   5.7781673  50.1193833  23.3524083
   5.4361673  50.5233833  23.9304083   7.9791673  40.2853833  24.5784083
   8.3231673  40.4373833  25.3654083   7.5261673  39.5473833  24.6914083
   7.9631673  40.1983833  24.7114083   2.4551673  39.5053833  19.0354083
   2.4531673  39.3883833  18.1704083   2.2741673  40.3533833  19.1274083
   2.4281673  39.6133833  18.9214083  11.5091673  51.9323833  30.5324083
  10.8381673  52.4463833  30.7504083  11.5721673  52.0323833  29.6684083
  11.4191673  52.0233833  30.4374083   9.3001673  41.6173833  27.1324083
   8.6381673  41.9453833  27.5954083   9.4871673  42.2513833  26.5634083
   9.2301673  41.7593833  27.1164083   3.5051673  52.6813833  28.1284083
   3.2281673  52.0403833  27.6054083   3.2971673  53.4073833  27.6904083
   3.4341673  52.6943833  27.9864083   5.9451673  37.5233833  30.5614083
   6.0941673  36.6983833  30.3184083   6.3241673  37.5783833  31.3454083
   6.0231673  37.4093833  30.6414083   7.4931673  39.5863833  20.6434083
   7.9831673  40.3033833  20.5664083   6.7031673  39.8473833  20.3804083
   7.4491673  39.7303833  20.5934083   8.8071673  47.4643833  32.5534083
   9.2911673  48.1823833  32.6514083   9.2011673  47.0373833  31.9024083
   8.9371673  47.5073833  32.4714083   3.1031673  50.3093833  33.7304083
   3.4571673  50.1313833  34.5074083   2.6671673  49.5803833  33.5314083
   3.0911673  50.1753833  33.8164083   4.0751673  41.0563833  26.3684083
   4.5551673  41.7553833  26.5764083   4.4481673  40.4093833  26.8194083
   4.2011673  41.0643833  26.4654083   6.2641673  44.2253833  18.6424083
   6.2561673  44.9473833  18.1524083   5.6251673  44.3603833  19.2194083
   6.1691673  44.3523833  18.6554083  11.2361673  48.0953833  22.6234083
  11.5921673  47.7453833  23.3384083  11.2281673  47.4343833  22.0534083
  11.2881673  47.9453833  22.6444083   7.2811673  51.1613833  26.4674083
   6.6781673  50.8653833  25.9104083   7.8261673  51.6133833  25.9584083
   7.2721673  51.1843833  26.3094083   7.2941673  48.0123833  25.8674083
   6.4971673  48.2363833  26.1414083   7.5521673  47.4183833  26.4524083
   7.2141673  47.9573833  25.9944083   3.4781673  52.3403833  18.7174083
   4.1001673  52.5033833  19.3074083   3.5141673  53.0313833  18.1854083
   3.5751673  52.4663833  18.7264083  10.5541673  46.0103833  30.7134083
  10.6091673  46.1353833  29.8514083  11.3071673  46.3303833  31.0154083
  10.6731673  46.0753833  30.6304083   6.7451673  51.3593833  34.9904083
   6.9091673  51.6423833  35.7994083   7.0081673  52.0203833  34.4854083
   6.8081673  51.4993833  35.0354083  11.5861673  36.3083833  33.7004083
  10.9491673  35.9083833  33.2584083  11.6121673  35.8773833  34.4584083
  11.4961673  36.1863833  33.7464083   6.2851673  45.8163833  30.3134083
   6.1301673  46.4263833  30.9174083   6.8191673  45.2583833  30.7194083
   6.3411673  45.8243833  30.4624083   4.6691673  44.2163833  20.9714083
   4.7281673  44.8663833  21.5504083   4.4801673  43.5203833  21.4624083
   4.6501673  44.2093833  21.1294083   9.8951673  48.5453833  26.8404083
   9.4161673  48.8433833  26.1744083   9.5391673  47.7693833  27.0184083
   9.7721673  48.4743833  26.7684083   3.8921673  46.2633833  25.4024083
   3.0451673  46.0693833  25.4834083   4.2161673  46.0983833  26.1954083
   3.8141673  46.2103833  25.5314083  13.5871673  52.7113833  18.7804083
  14.2811673  52.2443833  18.5324083  13.0481673  52.1133833  19.1174083
  13.6101673  52.5533833  18.7934083  10.8261673  45.4873833  27.9594083
  10.8191673  44.7113833  28.3574083   9.9851673  45.7213833  27.9524083
  10.7011673  45.4073833  28.0174083  12.0821673  45.5583833  25.3964083
  11.7961673  45.9593833  26.1164083  12.9421673  45.4963833  25.5234083
  12.1671673  45.6083833  25.5214083   9.7441673  39.4823833  33.9364083
   9.2191673  39.9413833  34.4604083   9.3831673  38.6873833  33.9304083
   9.6131673  39.4323833  34.0124083  13.2131673  51.1913833  25.9254083
  13.5031673  51.4483833  25.1444083  13.9081673  51.2873833  26.4444083
  13.3591673  51.2433833  25.8864083   8.2361673  43.0513833  34.0124083
   8.3091673  43.1553833  34.8754083   7.6021673  43.6093833  33.7914083
   8.1531673  43.1493833  34.1074083  10.5041673  43.3703833  32.3774083
  10.8231673  44.1563833  32.5804083  10.1341673  43.1003833  33.1204083
  10.4971673  43.4463833  32.5174083   9.8181673  49.7943833  17.9074083
  10.1521673  48.9883833  17.9424083   9.0631673  49.7223833  18.3374083
   9.7561673  49.6643833  17.9764083  10.3001673  41.6283833  23.5664083
   9.5551673  41.3053833  23.8844083  10.3021673  42.4543833  23.8464083
  10.1901673  41.7023833  23.6544083  13.2021673  43.9123833  35.1124083
  13.1501673  43.5713833  34.3114083  13.9391673  44.3793833  35.0904083
  13.3031673  43.9313833  34.9904083  12.7401673  47.5883833  31.3184083
  13.3681673  47.0393833  31.0624083  12.6791673  48.1533833  30.6564083
  12.8241673  47.5913833  31.1824083   7.1921673  47.6693833  17.3104083
   7.8761673  47.1553833  17.1414083   6.7751673  47.7153833  16.5454083
   7.2311673  47.6003833  17.1724083   9.2121673  37.9583833  31.0274083
   9.9561673  38.4103833  30.9644083   8.6461673  38.4283833  30.5584083
   9.2391673  38.0953833  30.9494083   4.3901673  45.2423833  28.1054083
   4.8661673  45.6163833  28.7334083   3.5671673  45.3763833  28.3644083
   4.3391673  45.3173833  28.2364083   3.6541673  52.6353833  23.3334083
   4.2001673  53.3143833  23.3874083   3.3041673  52.7173833  22.5384083
   3.6831673  52.7483833  23.2234083  10.4971673  35.9383833  28.6974083
  10.2171673  36.7633833  28.6534083  11.2131673  35.9913833  29.1934083
  10.5621673  36.0683833  28.7644083   2.8521673  36.6533833  30.7264083
   3.5571673  36.9733833  30.3244083   3.0931673  35.8463833  30.9534083
   2.9911673  36.5813833  30.7004083   6.1461673  47.4973833  33.7114083
   6.9031673  47.7833833  33.3854083   5.5991673  47.5493833  33.0334083
   6.1771673  47.5473833  33.5624083  10.0551673  50.0473833  32.2154083
  10.4011673  50.3173833  32.9694083  10.3491673  50.6293833  31.6354083
  10.1501673  50.1733833  32.2414083  11.9181673  42.1933833  17.5544083
  12.2961673  42.8703833  17.1544083  11.0761673  42.4173833  17.5854083
  11.8491673  42.3263833  17.4994083   3.4311673  45.6393833  16.6374083
   2.6261673  45.4623833  16.3524083   3.3981673  46.4903833  16.8294083
   3.3071673  45.7383833  16.6244083   7.3771673  40.8083833  32.3794083
   6.7291673  41.2783833  32.7274083   7.9421673  40.7193833  33.0384083
   7.3651673  40.8643833  32.5284083   7.0651673  42.3453833  28.6774083
   7.3671673  42.7653833  29.3804083   7.1011673  41.5053833  28.9094083
   7.1151673  42.2833833  28.8154083   4.4901673  52.5123833  32.6024083
   4.9681673  51.9123833  32.1864083   4.1391673  52.0693833  33.2674083
   4.5091673  52.3583833  32.6394083   9.6131673  41.7923833  20.9294083
   9.8201673  41.5913833  21.7534083  10.3691673  42.0603833  20.5874083
   9.7551673  41.8023833  21.0004083   2.9081673  36.6913833  26.8344083
   2.0821673  36.5423833  27.0714083   2.8681673  36.7263833  25.9634083
   2.7801673  36.6743833  26.7404083  10.6351673  37.8753833  22.4034083
   9.9211673  37.4043833  22.5744083  10.4731673  38.2163833  21.6174083
  10.5061673  37.8563833  22.3124083  11.0781673  45.8193833  20.7834083
  11.5541673  45.0903833  20.7354083  10.2571673  45.5333833  20.7074083
  11.0271673  45.6693833  20.7644083   4.5491673  47.7313833  31.6224083
   3.7541673  47.6673833  31.9734083   4.6201673  48.5783833  31.4274083
   4.4421673  47.8463833  31.6454083   7.2941673  46.9863833  23.1384083
   7.3701673  47.3273833  23.9374083   7.4631673  46.1393833  23.2594083
   7.3301673  46.9113833  23.2744083   4.8161673  46.2603833  22.7034083
   4.5181673  45.9453833  23.4604083   5.5111673  46.7333833  22.9384083
   4.8751673  46.2833833  22.8504083   5.0381673  50.3783833  30.7304083
   5.7251673  50.2643833  31.2554083   5.1721673  51.1693833  30.3864083
   5.1591673  50.4783833  30.7574083  13.2141673  42.9873833  32.5414083
  12.3591673  42.8653833  32.6674083  13.3671673  42.5923833  31.7784083
  13.1101673  42.9103833  32.4474083   7.7271673  43.6523833  31.1174083
   7.4721673  42.9333833  31.5394083   8.5481673  43.7683833  31.3874083
   7.8111673  43.5633833  31.2194083   5.6611673  44.8423833  34.3044083
   5.9841673  45.5283833  33.8724083   4.9571673  45.1653833  34.7064083
   5.6041673  44.9913833  34.2994083   8.7451673  53.2163833  25.2334083
   8.2941673  53.8593833  25.6124083   9.4531673  53.1373833  25.7384083
   8.7831673  53.2993833  25.3644083   5.4461673  48.3063833  28.1634083
   4.7521673  48.7083833  28.5064083   6.1231673  48.7393833  28.5024083
   5.4431673  48.4293833  28.2644083  10.8231673  50.8993833  34.7434083
  11.5991673  50.5093833  34.8264083  10.3541673  50.5633833  35.3984083
  10.8681673  50.7923833  34.8524083  11.8481673  42.9323833  20.2254083
  11.9511673  42.8743833  19.3614083  12.5891673  42.6003833  20.5434083
  11.9731673  42.8753833  20.1444083   5.7681673  49.8973833  21.3324083
   5.5631673  50.7303833  21.1734083   4.9931673  49.5153833  21.4544083
   5.6231673  49.9643833  21.3274083  10.9501673  43.0783833  29.5814083
  10.9481673  42.2153833  29.7054083  11.0171673  43.4023833  30.3884083
  10.9601673  42.9983833  29.7184083   6.8291673  37.8783833  33.3634083
   6.9211673  38.5903833  33.8574083   6.1921673  37.4333833  33.7604083
   6.7481673  37.9173833  33.4954083   5.8231673  38.0683833  24.2174083
   5.1231673  38.5863833  24.1614083   5.8611673  37.6883833  23.4334083
   5.7251673  38.0893833  24.0934083   9.4211673  38.5843833  27.0174083
  10.2761673  38.6833833  27.1624083   9.0521673  39.1373833  27.5824083
   9.4931673  38.6813833  27.1224083   9.7251673  43.8643833  25.5084083
  10.3911673  44.4053833  25.6684083   9.3801673  44.1753833  24.7694083
   9.7721673  43.9903833  25.4234083  10.0381673  51.9303833  21.3154083
   9.8641673  51.2763833  21.8654083  10.7511673  51.6593833  20.8924083
  10.1181673  51.7933833  21.3344083  12.8961673  36.4223833  30.1734083
  12.8441673  36.3783833  31.0434083  13.5831673  35.9193833  29.9834083
  12.9901673  36.3423833  30.2734083   4.9811673  38.5353833  27.2184083
   4.2441673  38.0813833  27.3314083   5.5521673  38.1333833  27.7414083
   4.9561673  38.4083833  27.3124083   7.7131673  49.3833833  29.0064083
   7.9191673  49.6843833  29.7984083   7.6521673  50.1053833  28.5214083
   7.7341673  49.5343833  29.0514083   7.2471673  53.5973833  33.2524083
   6.4941673  53.5793833  32.8114083   7.4151673  54.4493833  33.3364083
   7.1611673  53.7203833  33.1994083   2.4841673  42.8643833  32.4224083
   2.1621673  42.2883833  31.8524083   2.1251673  43.6193833  32.1764083
   2.3841673  42.8903833  32.3024083   3.2801673  36.1163833  17.0494083
   3.3581673  36.3633833  16.2164083   2.5371673  36.4933833  17.3074083
   3.1821673  36.2083833  16.9644083  12.5251673  48.0223833  28.4644083
  12.4931673  47.1603833  28.3294083  11.8321673  48.3243833  28.0304083
  12.4181673  47.9393833  28.3804083  10.6301673  51.2823833  27.2614083
  11.1571673  51.1993833  26.5704083  10.2391673  50.5043833  27.3154083
  10.6501673  51.1553833  27.1674083   7.1441673  36.7263833  26.4694083
   7.8141673  37.2703833  26.5964083   6.6411673  37.1503833  25.8964083
   7.1691673  36.8693833  26.4034083   6.5031673  42.5343833  23.9624083
   7.0541673  41.9273833  24.2624083   6.0781673  42.7973833  24.6774083
   6.5221673  42.4833833  24.1114083   8.4731673  44.3653833  20.5244083
   8.5411673  43.5153833  20.7054083   7.6501673  44.4513833  20.2464083
   8.3611673  44.2523833  20.5104083   2.3921673  45.2563833  19.4624083
   2.4921673  45.3953833  18.6074083   3.2101673  45.1963833  19.7584083
   2.5271673  45.2673833  19.3794083  11.5521673  53.3203833  16.9424083
  12.1891673  53.1863833  17.5234083  11.2111673  52.5263833  16.8254083
  11.5961673  53.1833833  17.0104083  11.7471673  45.7383833  33.6754083
  12.3811673  45.5683833  34.2494083  12.1641673  46.1413833  33.0234083
  11.9021673  45.7733833  33.6644083   7.6271673  49.5853833  19.2644083
   7.3761673  49.4573833  20.0904083   7.3101673  48.8903833  18.8434083
   7.5431673  49.4643833  19.3244083  12.3721673  40.3023833  34.4134083
  12.1761673  40.9463833  34.9684083  11.6501673  39.8123833  34.4054083
  12.2371673  40.3253833  34.4944083  12.2711673  41.2433833  27.3844083
  11.4381673  41.4933833  27.3124083  12.2151673  40.4033833  27.6134083
  12.1401673  41.1563833  27.4074083   9.1581673  45.8493833  35.0304083
  10.0291673  45.8133833  34.9944083   8.9391673  46.2693833  34.2984083
   9.2551673  45.9053833  34.9174083   4.5131673  47.7933833  18.6944083
   5.2301673  47.4463833  18.3384083   4.4791673  48.5933833  18.3464083
   4.6141673  47.8603833  18.5904083   5.9221673  36.4343833   2.9331673
   5.6771673  36.9223833   2.2531673   6.7851673  36.3613833   2.8331673
   6.0131673  36.4953833   2.8181673   5.7311673  43.3503833   7.6041673
   5.2071673  43.9463833   7.9671673   6.1281673  42.9823833   8.2881673
   5.7121673  43.3843833   7.7591673   8.4021673  44.4173833   4.2801673
   8.4821673  44.4213833   3.4111673   7.8181673  43.7853833   4.4291673
   8.3271673  44.3243833   4.1741673   2.3911673  37.5213833   2.0881673
   2.3211673  38.1983833   1.5421673   3.1321673  37.1333833   1.8391673
   2.4901673  37.5643833   1.9701673   2.0961673  50.9423833  11.6451673
   2.2341673  51.7023833  11.2381673   2.8871673  50.5773833  11.6721673
   2.2331673  51.0013833  11.5891673   3.1911673  48.8273833   6.1501673
   3.5391673  48.0283833   6.1801673   3.8561673  49.3313833   5.8951673
   3.3411673  48.7833833   6.1171673   3.2481673  48.2763833   2.3611673
   3.5791673  47.6323833   2.8471673   3.4881673  48.0653833   1.5501673
   3.3321673  48.1503833   2.3131673   5.2161673  42.4073833  13.7001673
   4.3681673  42.3083833  13.5221673   5.2451673  43.1523833  14.1541673
   5.0951673  42.5033833  13.7411673   9.7741673  35.3673833  12.8141673
   9.6161673  36.1363833  12.4321673   9.0021673  35.1473833  13.1581673
   9.6361673  35.4483833  12.8091673   2.5631673  37.0823833   5.0291673
   2.6361673  37.9423833   5.1581673   2.5251673  37.0073833   4.1611673
   2.5681673  37.1983833   4.9201673   1.7771673  39.4573833  16.3191673
   1.8941673  39.0033833  15.5831673   2.0651673  40.2553833  16.1161673
   1.8371673  39.5083833  16.1801673  12.6301673  39.9813833   3.6231673
  12.2841673  40.6593833   4.0491673  11.9941673  39.3833833   3.6391673
  12.4851673  39.9933833   3.6881673   7.9421673  52.7513833   9.7271673
   8.6861673  53.2073833   9.7171673   7.8211673  52.5373833   8.8901673
   8.0341673  52.7873833   9.6021673   4.1591673  36.6973833  14.4711673
   4.3371673  35.8883833  14.1961673   4.0161673  37.1383833  13.7321673
   4.1641673  36.6433833  14.3211673   4.7531673  41.6233833   3.2441673
   5.0401673  41.3913833   2.4541673   5.4851673  41.7023833   3.7131673
   4.9031673  41.6003833   3.1971673  12.3051673  38.3043833   8.9921673
  13.0621673  38.3763833   8.5641673  12.3681673  37.5313833   9.3911673
  12.4261673  38.2013833   8.9871673   7.1961673  49.9363833  13.4311673
   7.1621673  50.3183833  14.2151673   8.0501673  49.8943833  13.2601673
   7.3171673  49.9863833  13.5221673   5.6481673  53.1003833  10.9291673
   6.4161673  53.0203833  10.5231673   5.0651673  52.9793833  10.2911673
   5.6751673  53.0703833  10.7751673  11.9251673  53.7033833   3.8301673
  11.4701673  54.4203833   4.0311673  11.3111673  53.1323833   3.5881673
  11.7671673  53.7253833   3.8241673   3.6971673  39.7133833   4.9621673
   3.7711673  40.2813833   4.3041673   3.8181673  40.2053833   5.6721673
   3.7251673  39.8703833   4.9701673   8.9221673  49.5483833   3.3741673
   9.6231673  49.0663833   3.5631673   8.2621673  48.9793833   3.4191673
   8.9281673  49.3933833   3.4081673   7.4891673  39.8833833  10.8501673
   7.3941673  40.2023833  11.6561673   6.8961673  39.2443833  10.8121673
   7.3871673  39.8353833  10.9641673   2.0111673  45.9073833   9.9251673
   2.0641673  46.7543833  10.1271673   1.7261673  45.5373833  10.6621673
   1.9771673  45.9773833  10.0631673   8.1881673  46.6023833   9.0551673
   7.6741673  46.1903833   9.6261673   8.0621673  47.4463833   9.2361673
   8.0941673  46.6663833   9.1661673   8.7451673  35.8273833   3.6861673
   8.7941673  35.5093833   4.4971673   9.0681673  35.1833833   3.1931673
   8.8001673  35.6853833   3.7331673  11.2091673  40.0633833  11.9941673
  11.9811673  39.8383833  12.3311673  10.7341673  40.2803833  12.6941673
  11.2531673  40.0623833  12.1471673  13.6751673  51.5503833  13.4361673
  12.9931673  51.8603833  12.9891673  13.3061673  51.0923833  14.0811673
  13.5191673  51.5283833  13.4651673   2.7481673  42.1333833  16.1641673
   2.2641673  42.7103833  16.6061673   2.7201673  42.4283833  15.3431673
   2.6721673  42.2623833  16.1081673  13.8461673  42.8173833  10.7761673
  14.0611673  42.0173833  10.5001673  12.9961673  42.8773833  10.5871673
  13.7521673  42.7083833  10.7071673   5.4681673  50.4833833   5.0751673
   4.9451673  51.1173833   4.7821673   5.7781673  50.1193833   4.3461673
   5.4361673  50.5233833   4.9241673   7.9791673  40.2853833   5.5721673
   8.3231673  40.4373833   6.3591673   7.5261673  39.5473833   5.6851673
   7.9631673  40.1983833   5.7051673  11.5091673  51.9323833  11.5261673
  10.8381673  52.4463833  11.7441673  11.5721673  52.0323833  10.6621673
  11.4191673  52.0233833  11.4311673   9.3001673  41.6173833   8.1261673
   8.6381673  41.9453833   8.5891673   9.4871673  42.2513833   7.5571673
   9.2301673  41.7593833   8.1101673   3.5051673  52.6813833   9.1221673
   3.2281673  52.0403833   8.5991673   3.2971673  53.4073833   8.6841673
   3.4341673  52.6943833   8.9801673   5.9451673  37.5233833  11.5551673
   6.0941673  36.6983833  11.3121673   6.3241673  37.5783833  12.3391673
   6.0231673  37.4093833  11.6351673   8.8071673  47.4643833  13.5471673
   9.2911673  48.1823833  13.6451673   9.2011673  47.0373833  12.8961673
   8.9371673  47.5073833  13.4651673   3.1031673  50.3093833  14.7241673
   3.4571673  50.1313833  15.5011673   2.6671673  49.5803833  14.5251673
   3.0911673  50.1753833  14.8101673   4.0751673  41.0563833   7.3621673
   4.5551673  41.7553833   7.5701673   4.4481673  40.4093833   7.8131673
   4.2011673  41.0643833   7.4591673  11.2361673  48.0953833   3.6171673
  11.5921673  47.7453833   4.3321673  11.2281673  47.4343833   3.0471673
  11.2881673  47.9453833   3.6381673   7.2811673  51.1613833   7.4611673
   6.6781673  50.8653833   6.9041673   7.8261673  51.6133833   6.9521673
   7.2721673  51.1843833   7.3031673   7.2941673  48.0123833   6.8611673
   6.4971673  48.2363833   7.1351673   7.5521673  47.4183833   7.4461673
   7.2141673  47.9573833   6.9881673  10.5541673  46.0103833  11.7071673
  10.6091673  46.1353833  10.8451673  11.3071673  46.3303833  12.0091673
  10.6731673  46.0753833  11.6241673   6.7451673  51.3593833  15.9841673
   6.9091673  51.6423833  16.7931673   7.0081673  52.0203833  15.4791673
   6.8081673  51.4993833  16.0291673  11.5861673  36.3083833  14.6941673
  10.9491673  35.9083833  14.2521673  11.6121673  35.8773833  15.4521673
  11.4961673  36.1863833  14.7401673   6.2851673  45.8163833  11.3071673
   6.1301673  46.4263833  11.9111673   6.8191673  45.2583833  11.7131673
   6.3411673  45.8243833  11.4561673   4.6691673  44.2163833   1.9651673
   4.7281673  44.8663833   2.5441673   4.4801673  43.5203833   2.4561673
   4.6501673  44.2093833   2.1231673   9.8951673  48.5453833   7.8341673
   9.4161673  48.8433833   7.1681673   9.5391673  47.7693833   8.0121673
   9.7721673  48.4743833   7.7621673   3.8921673  46.2633833   6.3961673
   3.0451673  46.0693833   6.4771673   4.2161673  46.0983833   7.1891673
   3.8141673  46.2103833   6.5251673  10.8261673  45.4873833   8.9531673
  10.8191673  44.7113833   9.3511673   9.9851673  45.7213833   8.9461673
  10.7011673  45.4073833   9.0111673  12.0821673  45.5583833   6.3901673
  11.7961673  45.9593833   7.1101673  12.9421673  45.4963833   6.5171673
  12.1671673  45.6083833   6.5151673   9.7441673  39.4823833  14.9301673
   9.2191673  39.9413833  15.4541673   9.3831673  38.6873833  14.9241673
   9.6131673  39.4323833  15.0061673  13.2131673  51.1913833   6.9191673
  13.5031673  51.4483833   6.1381673  13.9081673  51.2873833   7.4381673
  13.3591673  51.2433833   6.8801673   8.2361673  43.0513833  15.0061673
   8.3091673  43.1553833  15.8691673   7.6021673  43.6093833  14.7851673
   8.1531673  43.1493833  15.1011673  10.5041673  43.3703833  13.3711673
  10.8231673  44.1563833  13.5741673  10.1341673  43.1003833  14.1141673
  10.4971673  43.4463833  13.5111673  10.3001673  41.6283833   4.5601673
   9.5551673  41.3053833   4.8781673  10.3021673  42.4543833   4.8401673
  10.1901673  41.7023833   4.6481673  13.2021673  43.9123833  16.1061673
  13.1501673  43.5713833  15.3051673  13.9391673  44.3793833  16.0841673
  13.3031673  43.9313833  15.9841673  12.7401673  47.5883833  12.3121673
  13.3681673  47.0393833  12.0561673  12.6791673  48.1533833  11.6501673
  12.8241673  47.5913833  12.1761673   9.2121673  37.9583833  12.0211673
   9.9561673  38.4103833  11.9581673   8.6461673  38.4283833  11.5521673
   9.2391673  38.0953833  11.9431673   4.3901673  45.2423833   9.0991673
   4.8661673  45.6163833   9.7271673   3.5671673  45.3763833   9.3581673
   4.3391673  45.3173833   9.2301673   3.6541673  52.6353833   4.3271673
   4.2001673  53.3143833   4.3811673   3.3041673  52.7173833   3.5321673
   3.6831673  52.7483833   4.2171673  10.4971673  35.9383833   9.6911673
  10.2171673  36.7633833   9.6471673  11.2131673  35.9913833  10.1871673
  10.5621673  36.0683833   9.7581673   2.8521673  36.6533833  11.7201673
   3.5571673  36.9733833  11.3181673   3.0931673  35.8463833  11.9471673
   2.9911673  36.5813833  11.6941673   6.1461673  47.4973833  14.7051673
   6.9031673  47.7833833  14.3791673   5.5991673  47.5493833  14.0271673
   6.1771673  47.5473833  14.5561673  10.0551673  50.0473833  13.2091673
  10.4011673  50.3173833  13.9631673  10.3491673  50.6293833  12.6291673
  10.1501673  50.1733833  13.2351673   7.3771673  40.8083833  13.3731673
   6.7291673  41.2783833  13.7211673   7.9421673  40.7193833  14.0321673
   7.3651673  40.8643833  13.5221673   7.0651673  42.3453833   9.6711673
   7.3671673  42.7653833  10.3741673   7.1011673  41.5053833   9.9031673
   7.1151673  42.2833833   9.8091673   4.4901673  52.5123833  13.5961673
   4.9681673  51.9123833  13.1801673   4.1391673  52.0693833  14.2611673
   4.5091673  52.3583833  13.6331673   9.6131673  41.7923833   1.9231673
   9.8201673  41.5913833   2.7471673  10.3691673  42.0603833   1.5811673
   9.7551673  41.8023833   1.9941673   2.9081673  36.6913833   7.8281673
   2.0821673  36.5423833   8.0651673   2.8681673  36.7263833   6.9571673
   2.7801673  36.6743833   7.7341673  10.6351673  37.8753833   3.3971673
   9.9211673  37.4043833   3.5681673  10.4731673  38.2163833   2.6111673
  10.5061673  37.8563833   3.3061673  11.0781673  45.8193833   1.7771673
  11.5541673  45.0903833   1.7291673  10.2571673  45.5333833   1.7011673
  11.0271673  45.6693833   1.7581673   4.5491673  47.7313833  12.6161673
   3.7541673  47.6673833  12.9671673   4.6201673  48.5783833  12.4211673
   4.4421673  47.8463833  12.6391673   7.2941673  46.9863833   4.1321673
   7.3701673  47.3273833   4.9311673   7.4631673  46.1393833   4.2531673
   7.3301673  46.9113833   4.2681673   4.8161673  46.2603833   3.6971673
   4.5181673  45.9453833   4.4541673   5.5111673  46.7333833   3.9321673
   4.8751673  46.2833833   3.8441673   5.0381673  50.3783833  11.7241673
   5.7251673  50.2643833  12.2491673   5.1721673  51.1693833  11.3801673
   5.1591673  50.4783833  11.7511673  13.2141673  42.9873833  13.5351673
  12.3591673  42.8653833  13.6611673  13.3671673  42.5923833  12.7721673
  13.1101673  42.9103833  13.4411673   7.7271673  43.6523833  12.1111673
   7.4721673  42.9333833  12.5331673   8.5481673  43.7683833  12.3811673
   7.8111673  43.5633833  12.2131673   5.6611673  44.8423833  15.2981673
   5.9841673  45.5283833  14.8661673   4.9571673  45.1653833  15.7001673
   5.6041673  44.9913833  15.2931673   8.7451673  53.2163833   6.2271673
   8.2941673  53.8593833   6.6061673   9.4531673  53.1373833   6.7321673
   8.7831673  53.2993833   6.3581673   5.4461673  48.3063833   9.1571673
   4.7521673  48.7083833   9.5001673   6.1231673  48.7393833   9.4961673
   5.4431673  48.4293833   9.2581673  10.8231673  50.8993833  15.7371673
  11.5991673  50.5093833  15.8201673  10.3541673  50.5633833  16.3921673
  10.8681673  50.7923833  15.8461673   5.7681673  49.8973833   2.3261673
   5.5631673  50.7303833   2.1671673   4.9931673  49.5153833   2.4481673
   5.6231673  49.9643833   2.3211673  10.9501673  43.0783833  10.5751673
  10.9481673  42.2153833  10.6991673  11.0171673  43.4023833  11.3821673
  10.9601673  42.9983833  10.7121673   6.8291673  37.8783833  14.3571673
   6.9211673  38.5903833  14.8511673   6.1921673  37.4333833  14.7541673
   6.7481673  37.9173833  14.4891673   5.8231673  38.0683833   5.2111673
   5.1231673  38.5863833   5.1551673   5.8611673  37.6883833   4.4271673
   5.7251673  38.0893833   5.0871673   9.4211673  38.5843833   8.0111673
  10.2761673  38.6833833   8.1561673   9.0521673  39.1373833   8.5761673
   9.4931673  38.6813833   8.1161673   9.7251673  43.8643833   6.5021673
  10.3911673  44.4053833   6.6621673   9.3801673  44.1753833   5.7631673
   9.7721673  43.9903833   6.4171673  10.0381673  51.9303833   2.3091673
   9.8641673  51.2763833   2.8591673  10.7511673  51.6593833   1.8861673
  10.1181673  51.7933833   2.3281673  12.8961673  36.4223833  11.1671673
  12.8441673  36.3783833  12.0371673  13.5831673  35.9193833  10.9771673
  12.9901673  36.3423833  11.2671673   4.9811673  38.5353833   8.2121673
   4.2441673  38.0813833   8.3251673   5.5521673  38.1333833   8.7351673
   4.9561673  38.4083833   8.3061673   7.7131673  49.3833833  10.0001673
   7.9191673  49.6843833  10.7921673   7.6521673  50.1053833   9.5151673
   7.7341673  49.5343833  10.0451673   7.2471673  53.5973833  14.2461673
   6.4941673  53.5793833  13.8051673   7.4151673  54.4493833  14.3301673
   7.1611673  53.7203833  14.1931673   2.4841673  42.8643833  13.4161673
   2.1621673  42.2883833  12.8461673   2.1251673  43.6193833  13.1701673
   2.3841673  42.8903833  13.2961673  12.5251673  48.0223833   9.4581673
  12.4931673  47.1603833   9.3231673  11.8321673  48.3243833   9.0241673
  12.4181673  47.9393833   9.3741673  10.6301673  51.2823833   8.2551673
  11.1571673  51.1993833   7.5641673  10.2391673  50.5043833   8.3091673
  10.6501673  51.1553833   8.1611673   7.1441673  36.7263833   7.4631673
   7.8141673  37.2703833   7.5901673   6.6411673  37.1503833   6.8901673
   7.1691673  36.8693833   7.3971673   6.5031673  42.5343833   4.9561673
   7.0541673  41.9273833   5.2561673   6.0781673  42.7973833   5.6711673
   6.5221673  42.4833833   5.1051673  11.7471673  45.7383833  14.6691673
  12.3811673  45.5683833  15.2431673  12.1641673  46.1413833  14.0171673
  11.9021673  45.7733833  14.6581673  12.3721673  40.3023833  15.4071673
  12.1761673  40.9463833  15.9621673  11.6501673  39.8123833  15.3991673
  12.2371673  40.3253833  15.4881673  12.2711673  41.2433833   8.3781673
  11.4381673  41.4933833   8.3061673  12.2151673  40.4033833   8.6071673
  12.1401673  41.1563833   8.4011673   9.1581673  45.8493833  16.0241673
  10.0291673  45.8133833  15.9881673   8.9391673  46.2693833  15.2921673
   9.2551673  45.9053833  15.9111673   5.9221673  17.9562753  78.9581313
   5.6771673  18.4442753  78.2781313   6.7851673  17.8832753  78.8581313
   6.0131673  18.0172753  78.8431313   5.7311673  24.8722753  83.6291313
   5.2071673  25.4682753  83.9921313   6.1281673  24.5042753  84.3131313
   5.7121673  24.9062753  83.7841313  11.8751673  32.3132753  76.6001313
  12.5761673  31.7942753  76.5961313  11.2881673  31.8682753  76.1311313
  11.8921673  32.1702753  76.5301313   8.4021673  25.9392753  80.3051313
   8.4821673  25.9432753  79.4361313   7.8181673  25.3072753  80.4541313
   8.3271673  25.8462753  80.1991313   2.3911673  19.0432753  78.1131313
   2.3211673  19.7202753  77.5671313   3.1321673  18.6552753  77.8641313
   2.4901673  19.0862753  77.9951313   2.0961673  32.4642753  87.6701313
   2.2341673  33.2242753  87.2631313   2.8871673  32.0992753  87.6971313
   2.2331673  32.5232753  87.6141313   3.1911673  30.3492753  82.1751313
   3.5391673  29.5502753  82.2051313   3.8561673  30.8532753  81.9201313
   3.3411673  30.3052753  82.1421313   3.2481673  29.7982753  78.3861313
   3.5791673  29.1542753  78.8721313   3.4881673  29.5872753  77.5751313
   3.3321673  29.6722753  78.3381313   2.5631673  18.6042753  81.0541313
   2.6361673  19.4642753  81.1831313   2.5251673  18.5292753  80.1861313
   2.5681673  18.7202753  80.9451313   7.2361673  21.5302753  73.3531313
   6.7861673  22.2112753  73.6601313   7.3501673  21.0262753  74.0561313
   7.1871673  21.5562753  73.5021313   7.3351673  33.8712753  75.4571313
   8.0621673  34.3432753  75.5591313   7.5641673  33.0772753  75.7371313
   7.4771673  33.8242753  75.5141313   5.5031673  34.2632753  77.4471313
   5.7171673  34.7902753  78.1091313   6.2701673  34.0892753  77.0681313
   5.6481673  34.3152753  77.4891313  12.6301673  21.5032753  79.6481313
  12.2841673  22.1812753  80.0741313  11.9941673  20.9052753  79.6641313
  12.4851673  21.5152753  79.7131313   7.9421673  34.2732753  85.7521313
   8.6861673  34.7292753  85.7421313   7.8211673  34.0592753  84.9151313
   8.0341673  34.3092753  85.6271313   4.7531673  23.1452753  79.2691313
   5.0401673  22.9132753  78.4791313   5.4851673  23.2242753  79.7381313
   4.9031673  23.1222753  79.2221313   5.4751673  23.4842753  74.3901313
   5.7561673  24.2722753  74.6391313   4.6991673  23.6492753  74.0271313
   5.4021673  23.6252753  74.3731313   9.5161673  35.4582753  75.8571313
  10.1811673  35.3102753  75.3121313   9.8761673  35.3752753  76.6471313
   9.6681673  35.4242753  75.8931313  12.3051673  19.8262753  85.0171313
  13.0621673  19.8982753  84.5891313  12.3681673  19.0532753  85.4161313
  12.4261673  19.7232753  85.0121313   4.3341673  31.6552753  74.2061313
   4.1531673  32.2002753  74.8631313   5.1001673  31.9452753  73.9051313
   4.4201673  31.7792753  74.2591313   7.8411673  19.5512753  75.2601313
   8.3811673  18.8692753  75.3361313   7.9031673  19.9492753  76.0341313
   7.9301673  19.5092753  75.3861313   5.0991673  21.9272753  76.5741313
   4.5911673  21.2652753  76.3201313   5.1511673  22.4312753  75.8641313
   5.0321673  21.9042753  76.4321313   5.6481673  34.6222753  86.9541313
   6.4161673  34.5422753  86.5481313   5.0651673  34.5012753  86.3161313
   5.6751673  34.5922753  86.8001313   5.0991673  18.8682753  76.4651313
   4.6441673  18.4662753  75.8391313   5.8721673  19.0232753  76.0901313
   5.1461673  18.8322753  76.3171313  11.9251673  35.2252753  79.8551313
  11.4701673  35.9422753  80.0561313  11.3111673  34.6542753  79.6131313
  11.7671673  35.2472753  79.8491313   3.6971673  21.2352753  80.9871313
   3.7711673  21.8032753  80.3291313   3.8181673  21.7272753  81.6971313
   3.7251673  21.3922753  80.9951313   8.9221673  31.0702753  79.3991313
   9.6231673  30.5882753  79.5881313   8.2621673  30.5012753  79.4441313
   8.9281673  30.9152753  79.4331313   7.4891673  21.4052753  86.8751313
   7.3941673  21.7242753  87.6811313   6.8961673  20.7662753  86.8371313
   7.3871673  21.3572753  86.9891313   2.0111673  27.4292753  85.9501313
   2.0641673  28.2762753  86.1521313   1.7261673  27.0592753  86.6871313
   1.9771673  27.4992753  86.0881313   8.1881673  28.1242753  85.0801313
   7.6741673  27.7122753  85.6511313   8.0621673  28.9682753  85.2611313
   8.0941673  28.1882753  85.1911313   8.7451673  17.3492753  79.7111313
   8.7941673  17.0312753  80.5221313   9.0681673  16.7052753  79.2181313
   8.8001673  17.2072753  79.7581313  11.4411673  28.5632753  75.2071313
  11.5601673  28.2762753  76.0221313  12.2481673  28.5842753  74.8771313
  11.5771673  28.5242753  75.2791313   9.3361673  25.1002753  74.7921313
   9.1161673  25.8312753  74.3701313   8.8881673  25.1512753  75.5391313
   9.2371673  25.2152753  74.8401313  13.5231673  19.9612753  74.2451313
  12.8611673  19.3932753  74.2681313  13.3301673  20.4732753  73.5651313
  13.3971673  19.9532753  74.1481313  13.8461673  24.3392753  86.8011313
  14.0611673  23.5392753  86.5251313  12.9961673  24.3992753  86.6121313
  13.7521673  24.2302753  86.7321313  11.5251673  19.5192753  76.5241313
  12.2711673  19.1122753  76.7231313  11.7881673  20.2342753  76.0991313
  11.6741673  19.5652753  76.4911313   5.4681673  32.0052753  81.1001313
   4.9451673  32.6392753  80.8071313   5.7781673  31.6412753  80.3711313
   5.4361673  32.0452753  80.9491313   7.9791673  21.8072753  81.5971313
   8.3231673  21.9592753  82.3841313   7.5261673  21.0692753  81.7101313
   7.9631673  21.7202753  81.7301313   2.4551673  21.0272753  76.0541313
   2.4531673  20.9102753  75.1891313   2.2741673  21.8752753  76.1461313
   2.4281673  21.1352753  75.9401313  11.5091673  33.4542753  87.5511313
  10.8381673  33.9682753  87.7691313  11.5721673  33.5542753  86.6871313
  11.4191673  33.5452753  87.4561313   9.3001673  23.1392753  84.1511313
   8.6381673  23.4672753  84.6141313   9.4871673  23.7732753  83.5821313
   9.2301673  23.2812753  84.1351313   3.5051673  34.2032753  85.1471313
   3.2281673  33.5622753  84.6241313   3.2971673  34.9292753  84.7091313
   3.4341673  34.2162753  85.0051313   7.4931673  21.1082753  77.6621313
   7.9831673  21.8252753  77.5851313   6.7031673  21.3692753  77.3991313
   7.4491673  21.2522753  77.6121313   4.0751673  22.5782753  83.3871313
   4.5551673  23.2772753  83.5951313   4.4481673  21.9312753  83.8381313
   4.2011673  22.5862753  83.4841313   6.2641673  25.7472753  75.6611313
   6.2561673  26.4692753  75.1711313   5.6251673  25.8822753  76.2381313
   6.1691673  25.8742753  75.6741313  11.2361673  29.6172753  79.6421313
  11.5921673  29.2672753  80.3571313  11.2281673  28.9562753  79.0721313
  11.2881673  29.4672753  79.6631313   7.2811673  32.6832753  83.4861313
   6.6781673  32.3872753  82.9291313   7.8261673  33.1352753  82.9771313
   7.2721673  32.7062753  83.3281313   7.2941673  29.5342753  82.8861313
   6.4971673  29.7582753  83.1601313   7.5521673  28.9402753  83.4711313
   7.2141673  29.4792753  83.0131313   3.4781673  33.8622753  75.7361313
   4.1001673  34.0252753  76.3261313   3.5141673  34.5532753  75.2041313
   3.5751673  33.9882753  75.7451313  10.5541673  27.5322753  87.7321313
  10.6091673  27.6572753  86.8701313  11.3071673  27.8522753  88.0341313
  10.6731673  27.5972753  87.6491313   6.2851673  27.3382753  87.3321313
   6.1301673  27.9482753  87.9361313   6.8191673  26.7802753  87.7381313
   6.3411673  27.3462753  87.4811313   4.6691673  25.7382753  77.9901313
   4.7281673  26.3882753  78.5691313   4.4801673  25.0422753  78.4811313
   4.6501673  25.7312753  78.1481313   9.8951673  30.0672753  83.8591313
   9.4161673  30.3652753  83.1931313   9.5391673  29.2912753  84.0371313
   9.7721673  29.9962753  83.7871313   3.8921673  27.7852753  82.4211313
   3.0451673  27.5912753  82.5021313   4.2161673  27.6202753  83.2141313
   3.8141673  27.7322753  82.5501313  13.5871673  34.2332753  75.7991313
  14.2811673  33.7662753  75.5511313  13.0481673  33.6352753  76.1361313
  13.6101673  34.0752753  75.8121313  10.8261673  27.0092753  84.9781313
  10.8191673  26.2332753  85.3761313   9.9851673  27.2432753  84.9711313
  10.7011673  26.9292753  85.0361313  12.0821673  27.0802753  82.4151313
  11.7961673  27.4812753  83.1351313  12.9421673  27.0182753  82.5421313
  12.1671673  27.1302753  82.5401313  13.2131673  32.7132753  82.9441313
  13.5031673  32.9702753  82.1631313  13.9081673  32.8092753  83.4631313
  13.3591673  32.7652753  82.9051313   9.8181673  31.3162753  74.9261313
  10.1521673  30.5102753  74.9611313   9.0631673  31.2442753  75.3561313
   9.7561673  31.1862753  74.9951313  10.3001673  23.1502753  80.5851313
   9.5551673  22.8272753  80.9031313  10.3021673  23.9762753  80.8651313
  10.1901673  23.2242753  80.6731313   7.1921673  29.1912753  74.3291313
   7.8761673  28.6772753  74.1601313   6.7751673  29.2372753  73.5641313
   7.2311673  29.1222753  74.1911313   9.2121673  19.4802753  88.0461313
   9.9561673  19.9322753  87.9831313   8.6461673  19.9502753  87.5771313
   9.2391673  19.6172753  87.9681313   4.3901673  26.7642753  85.1241313
   4.8661673  27.1382753  85.7521313   3.5671673  26.8982753  85.3831313
   4.3391673  26.8392753  85.2551313   3.6541673  34.1572753  80.3521313
   4.2001673  34.8362753  80.4061313   3.3041673  34.2392753  79.5571313
   3.6831673  34.2702753  80.2421313  10.4971673  17.4602753  85.7161313
  10.2171673  18.2852753  85.6721313  11.2131673  17.5132753  86.2121313
  10.5621673  17.5902753  85.7831313   2.8521673  18.1752753  87.7451313
   3.5571673  18.4952753  87.3431313   3.0931673  17.3682753  87.9721313
   2.9911673  18.1032753  87.7191313  11.9181673  23.7152753  74.5731313
  12.2961673  24.3922753  74.1731313  11.0761673  23.9392753  74.6041313
  11.8491673  23.8482753  74.5181313   3.4311673  27.1612753  73.6561313
   2.6261673  26.9842753  73.3711313   3.3981673  28.0122753  73.8481313
   3.3071673  27.2602753  73.6431313   7.0651673  23.8672753  85.6961313
   7.3671673  24.2872753  86.3991313   7.1011673  23.0272753  85.9281313
   7.1151673  23.8052753  85.8341313   9.6131673  23.3142753  77.9481313
   9.8201673  23.1132753  78.7721313  10.3691673  23.5822753  77.6061313
   9.7551673  23.3242753  78.0191313   2.9081673  18.2132753  83.8531313
   2.0821673  18.0642753  84.0901313   2.8681673  18.2482753  82.9821313
   2.7801673  18.1962753  83.7591313  10.6351673  19.3972753  79.4221313
   9.9211673  18.9262753  79.5931313  10.4731673  19.7382753  78.6361313
  10.5061673  19.3782753  79.3311313  11.0781673  27.3412753  77.8021313
  11.5541673  26.6122753  77.7541313  10.2571673  27.0552753  77.7261313
  11.0271673  27.1912753  77.7831313   7.2941673  28.5082753  80.1571313
   7.3701673  28.8492753  80.9561313   7.4631673  27.6612753  80.2781313
   7.3301673  28.4332753  80.2931313   4.8161673  27.7822753  79.7221313
   4.5181673  27.4672753  80.4791313   5.5111673  28.2552753  79.9571313
   4.8751673  27.8052753  79.8691313   8.7451673  34.7382753  82.2521313
   8.2941673  35.3812753  82.6311313   9.4531673  34.6592753  82.7571313
   8.7831673  34.8212753  82.3831313   5.4461673  29.8282753  85.1821313
   4.7521673  30.2302753  85.5251313   6.1231673  30.2612753  85.5211313
   5.4431673  29.9512753  85.2831313  11.8481673  24.4542753  77.2441313
  11.9511673  24.3962753  76.3801313  12.5891673  24.1222753  77.5621313
  11.9731673  24.3972753  77.1631313   5.7681673  31.4192753  78.3511313
   5.5631673  32.2522753  78.1921313   4.9931673  31.0372753  78.4731313
   5.6231673  31.4862753  78.3461313  10.9501673  24.6002753  86.6001313
  10.9481673  23.7372753  86.7241313  11.0171673  24.9242753  87.4071313
  10.9601673  24.5202753  86.7371313   5.8231673  19.5902753  81.2361313
   5.1231673  20.1082753  81.1801313   5.8611673  19.2102753  80.4521313
   5.7251673  19.6112753  81.1121313   9.4211673  20.1062753  84.0361313
  10.2761673  20.2052753  84.1811313   9.0521673  20.6592753  84.6011313
   9.4931673  20.2032753  84.1411313   9.7251673  25.3862753  82.5271313
  10.3911673  25.9272753  82.6871313   9.3801673  25.6972753  81.7881313
   9.7721673  25.5122753  82.4421313  10.0381673  33.4522753  78.3341313
   9.8641673  32.7982753  78.8841313  10.7511673  33.1812753  77.9111313
  10.1181673  33.3152753  78.3531313  12.8961673  17.9442753  87.1921313
  12.8441673  17.9002753  88.0621313  13.5831673  17.4412753  87.0021313
  12.9901673  17.8642753  87.2921313   4.9811673  20.0572753  84.2371313
   4.2441673  19.6032753  84.3501313   5.5521673  19.6552753  84.7601313
   4.9561673  19.9302753  84.3311313   7.7131673  30.9052753  86.0251313
   7.9191673  31.2062753  86.8171313   7.6521673  31.6272753  85.5401313
   7.7341673  31.0562753  86.0701313   3.2801673  17.6382753  74.0681313
   3.3581673  17.8852753  73.2351313   2.5371673  18.0152753  74.3261313
   3.1821673  17.7302753  73.9831313  12.5251673  29.5442753  85.4831313
  12.4931673  28.6822753  85.3481313  11.8321673  29.8462753  85.0491313
  12.4181673  29.4612753  85.3991313  10.6301673  32.8042753  84.2801313
  11.1571673  32.7212753  83.5891313  10.2391673  32.0262753  84.3341313
  10.6501673  32.6772753  84.1861313   7.1441673  18.2482753  83.4881313
   7.8141673  18.7922753  83.6151313   6.6411673  18.6722753  82.9151313
   7.1691673  18.3912753  83.4221313   6.5031673  24.0562753  80.9811313
   7.0541673  23.4492753  81.2811313   6.0781673  24.3192753  81.6961313
   6.5221673  24.0052753  81.1301313   8.4731673  25.8872753  77.5431313
   8.5411673  25.0372753  77.7241313   7.6501673  25.9732753  77.2651313
   8.3611673  25.7742753  77.5291313   2.3921673  26.7782753  76.4811313
   2.4921673  26.9172753  75.6261313   3.2101673  26.7182753  76.7771313
   2.5271673  26.7892753  76.3981313  11.5521673  34.8422753  73.9611313
  12.1891673  34.7082753  74.5421313  11.2111673  34.0482753  73.8441313
  11.5961673  34.7052753  74.0291313   7.6271673  31.1072753  76.2831313
   7.3761673  30.9792753  77.1091313   7.3101673  30.4122753  75.8621313
   7.5431673  30.9862753  76.3431313  12.2711673  22.7652753  84.4031313
  11.4381673  23.0152753  84.3311313  12.2151673  21.9252753  84.6321313
  12.1401673  22.6782753  84.4261313   4.5131673  29.3152753  75.7131313
   5.2301673  28.9682753  75.3571313   4.4791673  30.1152753  75.3651313
   4.6141673  29.3822753  75.6091313   5.9221673  17.9562753  59.9518903
   5.6771673  18.4442753  59.2718903   6.7851673  17.8832753  59.8518903
   6.0131673  18.0172753  59.8368903   5.7311673  24.8722753  64.6228903
   5.2071673  25.4682753  64.9858903   6.1281673  24.5042753  65.3068903
   5.7121673  24.9062753  64.7778903  11.8751673  32.3132753  57.5938903
  12.5761673  31.7942753  57.5898903  11.2881673  31.8682753  57.1248903
  11.8921673  32.1702753  57.5238903   8.4021673  25.9392753  61.2988903
   8.4821673  25.9432753  60.4298903   7.8181673  25.3072753  61.4478903
   8.3271673  25.8462753  61.1928903   2.3911673  19.0432753  59.1068903
   2.3211673  19.7202753  58.5608903   3.1321673  18.6552753  58.8578903
   2.4901673  19.0862753  58.9888903   2.0961673  32.4642753  68.6638903
   2.2341673  33.2242753  68.2568903   2.8871673  32.0992753  68.6908903
   2.2331673  32.5232753  68.6078903   3.1911673  30.3492753  63.1688903
   3.5391673  29.5502753  63.1988903   3.8561673  30.8532753  62.9138903
   3.3411673  30.3052753  63.1358903   3.2481673  29.7982753  59.3798903
   3.5791673  29.1542753  59.8658903   3.4881673  29.5872753  58.5688903
   3.3321673  29.6722753  59.3318903   5.2161673  23.9292753  70.7188903
   4.3681673  23.8302753  70.5408903   5.2451673  24.6742753  71.1728903
   5.0951673  24.0252753  70.7598903   9.7741673  16.8892753  69.8328903
   9.6161673  17.6582753  69.4508903   9.0021673  16.6692753  70.1768903
   9.6361673  16.9702753  69.8278903   2.5631673  18.6042753  62.0478903
   2.6361673  19.4642753  62.1768903   2.5251673  18.5292753  61.1798903
   2.5681673  18.7202753  61.9388903   7.2361673  21.5302753  54.3468903
   6.7861673  22.2112753  54.6538903   7.3501673  21.0262753  55.0498903
   7.1871673  21.5562753  54.4958903   7.3351673  33.8712753  56.4508903
   8.0621673  34.3432753  56.5528903   7.5641673  33.0772753  56.7308903
   7.4771673  33.8242753  56.5078903   5.5031673  34.2632753  58.4408903
   5.7171673  34.7902753  59.1028903   6.2701673  34.0892753  58.0618903
   5.6481673  34.3152753  58.4828903   1.7771673  20.9792753  73.3378903
   1.8941673  20.5252753  72.6018903   2.0651673  21.7772753  73.1348903
   1.8371673  21.0302753  73.1988903  12.6301673  21.5032753  60.6418903
  12.2841673  22.1812753  61.0678903  11.9941673  20.9052753  60.6578903
  12.4851673  21.5152753  60.7068903   7.9421673  34.2732753  66.7458903
   8.6861673  34.7292753  66.7358903   7.8211673  34.0592753  65.9088903
   8.0341673  34.3092753  66.6208903   4.1591673  18.2192753  71.4898903
   4.3371673  17.4102753  71.2148903   4.0161673  18.6602753  70.7508903
   4.1641673  18.1652753  71.3398903   4.7531673  23.1452753  60.2628903
   5.0401673  22.9132753  59.4728903   5.4851673  23.2242753  60.7318903
   4.9031673  23.1222753  60.2158903   5.4751673  23.4842753  55.3838903
   5.7561673  24.2722753  55.6328903   4.6991673  23.6492753  55.0208903
   5.4021673  23.6252753  55.3668903   9.5161673  35.4582753  56.8508903
  10.1811673  35.3102753  56.3058903   9.8761673  35.3752753  57.6408903
   9.6681673  35.4242753  56.8868903  12.3051673  19.8262753  66.0108903
  13.0621673  19.8982753  65.5828903  12.3681673  19.0532753  66.4098903
  12.4261673  19.7232753  66.0058903   7.1961673  31.4582753  70.4498903
   7.1621673  31.8402753  71.2338903   8.0501673  31.4162753  70.2788903
   7.3171673  31.5082753  70.5408903   4.3341673  31.6552753  55.1998903
   4.1531673  32.2002753  55.8568903   5.1001673  31.9452753  54.8988903
   4.4201673  31.7792753  55.2528903   7.8411673  19.5512753  56.2538903
   8.3811673  18.8692753  56.3298903   7.9031673  19.9492753  57.0278903
   7.9301673  19.5092753  56.3798903   5.0991673  21.9272753  57.5678903
   4.5911673  21.2652753  57.3138903   5.1511673  22.4312753  56.8578903
   5.0321673  21.9042753  57.4258903   5.6481673  34.6222753  67.9478903
   6.4161673  34.5422753  67.5418903   5.0651673  34.5012753  67.3098903
   5.6751673  34.5922753  67.7938903   5.0991673  18.8682753  57.4588903
   4.6441673  18.4662753  56.8328903   5.8721673  19.0232753  57.0838903
   5.1461673  18.8322753  57.3108903  11.9251673  35.2252753  60.8488903
  11.4701673  35.9422753  61.0498903  11.3111673  34.6542753  60.6068903
  11.7671673  35.2472753  60.8428903   3.6971673  21.2352753  61.9808903
   3.7711673  21.8032753  61.3228903   3.8181673  21.7272753  62.6908903
   3.7251673  21.3922753  61.9888903   8.9221673  31.0702753  60.3928903
   9.6231673  30.5882753  60.5818903   8.2621673  30.5012753  60.4378903
   8.9281673  30.9152753  60.4268903   7.4891673  21.4052753  67.8688903
   7.3941673  21.7242753  68.6748903   6.8961673  20.7662753  67.8308903
   7.3871673  21.3572753  67.9828903   2.0111673  27.4292753  66.9438903
   2.0641673  28.2762753  67.1458903   1.7261673  27.0592753  67.6808903
   1.9771673  27.4992753  67.0818903   8.1881673  28.1242753  66.0738903
   7.6741673  27.7122753  66.6448903   8.0621673  28.9682753  66.2548903
   8.0941673  28.1882753  66.1848903   8.7451673  17.3492753  60.7048903
   8.7941673  17.0312753  61.5158903   9.0681673  16.7052753  60.2118903
   8.8001673  17.2072753  60.7518903  11.2091673  21.5852753  69.0128903
  11.9811673  21.3602753  69.3498903  10.7341673  21.8022753  69.7128903
  11.2531673  21.5842753  69.1658903  11.4411673  28.5632753  56.2008903
  11.5601673  28.2762753  57.0158903  12.2481673  28.5842753  55.8708903
  11.5771673  28.5242753  56.2728903  13.6751673  33.0722753  70.4548903
  12.9931673  33.3822753  70.0078903  13.3061673  32.6142753  71.0998903
  13.5191673  33.0502753  70.4838903   9.3361673  25.1002753  55.7858903
   9.1161673  25.8312753  55.3638903   8.8881673  25.1512753  56.5328903
   9.2371673  25.2152753  55.8338903  13.5231673  19.9612753  55.2388903
  12.8611673  19.3932753  55.2618903  13.3301673  20.4732753  54.5588903
  13.3971673  19.9532753  55.1418903   2.7481673  23.6552753  73.1828903
   2.2641673  24.2322753  73.6248903   2.7201673  23.9502753  72.3618903
   2.6721673  23.7842753  73.1268903  13.8461673  24.3392753  67.7948903
  14.0611673  23.5392753  67.5188903  12.9961673  24.3992753  67.6058903
  13.7521673  24.2302753  67.7258903  11.5251673  19.5192753  57.5178903
  12.2711673  19.1122753  57.7168903  11.7881673  20.2342753  57.0928903
  11.6741673  19.5652753  57.4848903   5.4681673  32.0052753  62.0938903
   4.9451673  32.6392753  61.8008903   5.7781673  31.6412753  61.3648903
   5.4361673  32.0452753  61.9428903   7.9791673  21.8072753  62.5908903
   8.3231673  21.9592753  63.3778903   7.5261673  21.0692753  62.7038903
   7.9631673  21.7202753  62.7238903   2.4551673  21.0272753  57.0478903
   2.4531673  20.9102753  56.1828903   2.2741673  21.8752753  57.1398903
   2.4281673  21.1352753  56.9338903  11.5091673  33.4542753  68.5448903
  10.8381673  33.9682753  68.7628903  11.5721673  33.5542753  67.6808903
  11.4191673  33.5452753  68.4498903   9.3001673  23.1392753  65.1448903
   8.6381673  23.4672753  65.6078903   9.4871673  23.7732753  64.5758903
   9.2301673  23.2812753  65.1288903   3.5051673  34.2032753  66.1408903
   3.2281673  33.5622753  65.6178903   3.2971673  34.9292753  65.7028903
   3.4341673  34.2162753  65.9988903   5.9451673  19.0452753  68.5738903
   6.0941673  18.2202753  68.3308903   6.3241673  19.1002753  69.3578903
   6.0231673  18.9312753  68.6538903   7.4931673  21.1082753  58.6558903
   7.9831673  21.8252753  58.5788903   6.7031673  21.3692753  58.3928903
   7.4491673  21.2522753  58.6058903   8.8071673  28.9862753  70.5658903
   9.2911673  29.7042753  70.6638903   9.2011673  28.5592753  69.9148903
   8.9371673  29.0292753  70.4838903   3.1031673  31.8312753  71.7428903
   3.4571673  31.6532753  72.5198903   2.6671673  31.1022753  71.5438903
   3.0911673  31.6972753  71.8288903   4.0751673  22.5782753  64.3808903
   4.5551673  23.2772753  64.5888903   4.4481673  21.9312753  64.8318903
   4.2011673  22.5862753  64.4778903   6.2641673  25.7472753  56.6548903
   6.2561673  26.4692753  56.1648903   5.6251673  25.8822753  57.2318903
   6.1691673  25.8742753  56.6678903  11.2361673  29.6172753  60.6358903
  11.5921673  29.2672753  61.3508903  11.2281673  28.9562753  60.0658903
  11.2881673  29.4672753  60.6568903   7.2811673  32.6832753  64.4798903
   6.6781673  32.3872753  63.9228903   7.8261673  33.1352753  63.9708903
   7.2721673  32.7062753  64.3218903   7.2941673  29.5342753  63.8798903
   6.4971673  29.7582753  64.1538903   7.5521673  28.9402753  64.4648903
   7.2141673  29.4792753  64.0068903   3.4781673  33.8622753  56.7298903
   4.1001673  34.0252753  57.3198903   3.5141673  34.5532753  56.1978903
   3.5751673  33.9882753  56.7388903  10.5541673  27.5322753  68.7258903
  10.6091673  27.6572753  67.8638903  11.3071673  27.8522753  69.0278903
  10.6731673  27.5972753  68.6428903   6.7451673  32.8812753  73.0028903
   6.9091673  33.1642753  73.8118903   7.0081673  33.5422753  72.4978903
   6.8081673  33.0212753  73.0478903  11.5861673  17.8302753  71.7128903
  10.9491673  17.4302753  71.2708903  11.6121673  17.3992753  72.4708903
  11.4961673  17.7082753  71.7588903   6.2851673  27.3382753  68.3258903
   6.1301673  27.9482753  68.9298903   6.8191673  26.7802753  68.7318903
   6.3411673  27.3462753  68.4748903   4.6691673  25.7382753  58.9838903
   4.7281673  26.3882753  59.5628903   4.4801673  25.0422753  59.4748903
   4.6501673  25.7312753  59.1418903   9.8951673  30.0672753  64.8528903
   9.4161673  30.3652753  64.1868903   9.5391673  29.2912753  65.0308903
   9.7721673  29.9962753  64.7808903   3.8921673  27.7852753  63.4148903
   3.0451673  27.5912753  63.4958903   4.2161673  27.6202753  64.2078903
   3.8141673  27.7322753  63.5438903  13.5871673  34.2332753  56.7928903
  14.2811673  33.7662753  56.5448903  13.0481673  33.6352753  57.1298903
  13.6101673  34.0752753  56.8058903  10.8261673  27.0092753  65.9718903
  10.8191673  26.2332753  66.3698903   9.9851673  27.2432753  65.9648903
  10.7011673  26.9292753  66.0298903  12.0821673  27.0802753  63.4088903
  11.7961673  27.4812753  64.1288903  12.9421673  27.0182753  63.5358903
  12.1671673  27.1302753  63.5338903   9.7441673  21.0042753  71.9488903
   9.2191673  21.4632753  72.4728903   9.3831673  20.2092753  71.9428903
   9.6131673  20.9542753  72.0248903  13.2131673  32.7132753  63.9378903
  13.5031673  32.9702753  63.1568903  13.9081673  32.8092753  64.4568903
  13.3591673  32.7652753  63.8988903   8.2361673  24.5732753  72.0248903
   8.3091673  24.6772753  72.8878903   7.6021673  25.1312753  71.8038903
   8.1531673  24.6712753  72.1198903  10.5041673  24.8922753  70.3898903
  10.8231673  25.6782753  70.5928903  10.1341673  24.6222753  71.1328903
  10.4971673  24.9682753  70.5298903   9.8181673  31.3162753  55.9198903
  10.1521673  30.5102753  55.9548903   9.0631673  31.2442753  56.3498903
   9.7561673  31.1862753  55.9888903  10.3001673  23.1502753  61.5788903
   9.5551673  22.8272753  61.8968903  10.3021673  23.9762753  61.8588903
  10.1901673  23.2242753  61.6668903  13.2021673  25.4342753  73.1248903
  13.1501673  25.0932753  72.3238903  13.9391673  25.9012753  73.1028903
  13.3031673  25.4532753  73.0028903  12.7401673  29.1102753  69.3308903
  13.3681673  28.5612753  69.0748903  12.6791673  29.6752753  68.6688903
  12.8241673  29.1132753  69.1948903   7.1921673  29.1912753  55.3228903
   7.8761673  28.6772753  55.1538903   6.7751673  29.2372753  54.5578903
   7.2311673  29.1222753  55.1848903   9.2121673  19.4802753  69.0398903
   9.9561673  19.9322753  68.9768903   8.6461673  19.9502753  68.5708903
   9.2391673  19.6172753  68.9618903   4.3901673  26.7642753  66.1178903
   4.8661673  27.1382753  66.7458903   3.5671673  26.8982753  66.3768903
   4.3391673  26.8392753  66.2488903   3.6541673  34.1572753  61.3458903
   4.2001673  34.8362753  61.3998903   3.3041673  34.2392753  60.5508903
   3.6831673  34.2702753  61.2358903  10.4971673  17.4602753  66.7098903
  10.2171673  18.2852753  66.6658903  11.2131673  17.5132753  67.2058903
  10.5621673  17.5902753  66.7768903   2.8521673  18.1752753  68.7388903
   3.5571673  18.4952753  68.3368903   3.0931673  17.3682753  68.9658903
   2.9911673  18.1032753  68.7128903   6.1461673  29.0192753  71.7238903
   6.9031673  29.3052753  71.3978903   5.5991673  29.0712753  71.0458903
   6.1771673  29.0692753  71.5748903  10.0551673  31.5692753  70.2278903
  10.4011673  31.8392753  70.9818903  10.3491673  32.1512753  69.6478903
  10.1501673  31.6952753  70.2538903  11.9181673  23.7152753  55.5668903
  12.2961673  24.3922753  55.1668903  11.0761673  23.9392753  55.5978903
  11.8491673  23.8482753  55.5118903   3.4311673  27.1612753  54.6498903
   2.6261673  26.9842753  54.3648903   3.3981673  28.0122753  54.8418903
   3.3071673  27.2602753  54.6368903   7.3771673  22.3302753  70.3918903
   6.7291673  22.8002753  70.7398903   7.9421673  22.2412753  71.0508903
   7.3651673  22.3862753  70.5408903   7.0651673  23.8672753  66.6898903
   7.3671673  24.2872753  67.3928903   7.1011673  23.0272753  66.9218903
   7.1151673  23.8052753  66.8278903   4.4901673  34.0342753  70.6148903
   4.9681673  33.4342753  70.1988903   4.1391673  33.5912753  71.2798903
   4.5091673  33.8802753  70.6518903   9.6131673  23.3142753  58.9418903
   9.8201673  23.1132753  59.7658903  10.3691673  23.5822753  58.5998903
   9.7551673  23.3242753  59.0128903   2.9081673  18.2132753  64.8468903
   2.0821673  18.0642753  65.0838903   2.8681673  18.2482753  63.9758903
   2.7801673  18.1962753  64.7528903  10.6351673  19.3972753  60.4158903
   9.9211673  18.9262753  60.5868903  10.4731673  19.7382753  59.6298903
  10.5061673  19.3782753  60.3248903  11.0781673  27.3412753  58.7958903
  11.5541673  26.6122753  58.7478903  10.2571673  27.0552753  58.7198903
  11.0271673  27.1912753  58.7768903   4.5491673  29.2532753  69.6348903
   3.7541673  29.1892753  69.9858903   4.6201673  30.1002753  69.4398903
   4.4421673  29.3682753  69.6578903   7.2941673  28.5082753  61.1508903
   7.3701673  28.8492753  61.9498903   7.4631673  27.6612753  61.2718903
   7.3301673  28.4332753  61.2868903   4.8161673  27.7822753  60.7158903
   4.5181673  27.4672753  61.4728903   5.5111673  28.2552753  60.9508903
   4.8751673  27.8052753  60.8628903   5.0381673  31.9002753  68.7428903
   5.7251673  31.7862753  69.2678903   5.1721673  32.6912753  68.3988903
   5.1591673  32.0002753  68.7698903  13.2141673  24.5092753  70.5538903
  12.3591673  24.3872753  70.6798903  13.3671673  24.1142753  69.7908903
  13.1101673  24.4322753  70.4598903   7.7271673  25.1742753  69.1298903
   7.4721673  24.4552753  69.5518903   8.5481673  25.2902753  69.3998903
   7.8111673  25.0852753  69.2318903   5.6611673  26.3642753  72.3168903
   5.9841673  27.0502753  71.8848903   4.9571673  26.6872753  72.7188903
   5.6041673  26.5132753  72.3118903   8.7451673  34.7382753  63.2458903
   8.2941673  35.3812753  63.6248903   9.4531673  34.6592753  63.7508903
   8.7831673  34.8212753  63.3768903   5.4461673  29.8282753  66.1758903
   4.7521673  30.2302753  66.5188903   6.1231673  30.2612753  66.5148903
   5.4431673  29.9512753  66.2768903  10.8231673  32.4212753  72.7558903
  11.5991673  32.0312753  72.8388903  10.3541673  32.0852753  73.4108903
  10.8681673  32.3142753  72.8648903  11.8481673  24.4542753  58.2378903
  11.9511673  24.3962753  57.3738903  12.5891673  24.1222753  58.5558903
  11.9731673  24.3972753  58.1568903   5.7681673  31.4192753  59.3448903
   5.5631673  32.2522753  59.1858903   4.9931673  31.0372753  59.4668903
   5.6231673  31.4862753  59.3398903  10.9501673  24.6002753  67.5938903
  10.9481673  23.7372753  67.7178903  11.0171673  24.9242753  68.4008903
  10.9601673  24.5202753  67.7308903   6.8291673  19.4002753  71.3758903
   6.9211673  20.1122753  71.8698903   6.1921673  18.9552753  71.7728903
   6.7481673  19.4392753  71.5078903   5.8231673  19.5902753  62.2298903
   5.1231673  20.1082753  62.1738903   5.8611673  19.2102753  61.4458903
   5.7251673  19.6112753  62.1058903   9.4211673  20.1062753  65.0298903
  10.2761673  20.2052753  65.1748903   9.0521673  20.6592753  65.5948903
   9.4931673  20.2032753  65.1348903   9.7251673  25.3862753  63.5208903
  10.3911673  25.9272753  63.6808903   9.3801673  25.6972753  62.7818903
   9.7721673  25.5122753  63.4358903  10.0381673  33.4522753  59.3278903
   9.8641673  32.7982753  59.8778903  10.7511673  33.1812753  58.9048903
  10.1181673  33.3152753  59.3468903  12.8961673  17.9442753  68.1858903
  12.8441673  17.9002753  69.0558903  13.5831673  17.4412753  67.9958903
  12.9901673  17.8642753  68.2858903   4.9811673  20.0572753  65.2308903
   4.2441673  19.6032753  65.3438903   5.5521673  19.6552753  65.7538903
   4.9561673  19.9302753  65.3248903   7.7131673  30.9052753  67.0188903
   7.9191673  31.2062753  67.8108903   7.6521673  31.6272753  66.5338903
   7.7341673  31.0562753  67.0638903   7.2471673  35.1192753  71.2648903
   6.4941673  35.1012753  70.8238903   7.4151673  35.9712753  71.3488903
   7.1611673  35.2422753  71.2118903   2.4841673  24.3862753  70.4348903
   2.1621673  23.8102753  69.8648903   2.1251673  25.1412753  70.1888903
   2.3841673  24.4122753  70.3148903   3.2801673  17.6382753  55.0618903
   3.3581673  17.8852753  54.2288903   2.5371673  18.0152753  55.3198903
   3.1821673  17.7302753  54.9768903  12.5251673  29.5442753  66.4768903
  12.4931673  28.6822753  66.3418903  11.8321673  29.8462753  66.0428903
  12.4181673  29.4612753  66.3928903  10.6301673  32.8042753  65.2738903
  11.1571673  32.7212753  64.5828903  10.2391673  32.0262753  65.3278903
  10.6501673  32.6772753  65.1798903   7.1441673  18.2482753  64.4818903
   7.8141673  18.7922753  64.6088903   6.6411673  18.6722753  63.9088903
   7.1691673  18.3912753  64.4158903   6.5031673  24.0562753  61.9748903
   7.0541673  23.4492753  62.2748903   6.0781673  24.3192753  62.6898903
   6.5221673  24.0052753  62.1238903   8.4731673  25.8872753  58.5368903
   8.5411673  25.0372753  58.7178903   7.6501673  25.9732753  58.2588903
   8.3611673  25.7742753  58.5228903   2.3921673  26.7782753  57.4748903
   2.4921673  26.9172753  56.6198903   3.2101673  26.7182753  57.7708903
   2.5271673  26.7892753  57.3918903  11.5521673  34.8422753  54.9548903
  12.1891673  34.7082753  55.5358903  11.2111673  34.0482753  54.8378903
  11.5961673  34.7052753  55.0228903  11.7471673  27.2602753  71.6878903
  12.3811673  27.0902753  72.2618903  12.1641673  27.6632753  71.0358903
  11.9021673  27.2952753  71.6768903   7.6271673  31.1072753  57.2768903
   7.3761673  30.9792753  58.1028903   7.3101673  30.4122753  56.8558903
   7.5431673  30.9862753  57.3368903  12.3721673  21.8242753  72.4258903
  12.1761673  22.4682753  72.9808903  11.6501673  21.3342753  72.4178903
  12.2371673  21.8472753  72.5068903  12.2711673  22.7652753  65.3968903
  11.4381673  23.0152753  65.3248903  12.2151673  21.9252753  65.6258903
  12.1401673  22.6782753  65.4198903   9.1581673  27.3712753  73.0428903
  10.0291673  27.3352753  73.0068903   8.9391673  27.7912753  72.3108903
   9.2551673  27.4272753  72.9298903   4.5131673  29.3152753  56.7068903
   5.2301673  28.9682753  56.3508903   4.4791673  30.1152753  56.3588903
   4.6141673  29.3822753  56.6028903   5.9221673  17.9562753  40.9456493
   5.6771673  18.4442753  40.2656493   6.7851673  17.8832753  40.8456493
   6.0131673  18.0172753  40.8306493   5.7311673  24.8722753  45.6166493
   5.2071673  25.4682753  45.9796493   6.1281673  24.5042753  46.3006493
   5.7121673  24.9062753  45.7716493  11.8751673  32.3132753  38.5876493
  12.5761673  31.7942753  38.5836493  11.2881673  31.8682753  38.1186493
  11.8921673  32.1702753  38.5176493   8.4021673  25.9392753  42.2926493
   8.4821673  25.9432753  41.4236493   7.8181673  25.3072753  42.4416493
   8.3271673  25.8462753  42.1866493   2.3911673  19.0432753  40.1006493
   2.3211673  19.7202753  39.5546493   3.1321673  18.6552753  39.8516493
   2.4901673  19.0862753  39.9826493   2.0961673  32.4642753  49.6576493
   2.2341673  33.2242753  49.2506493   2.8871673  32.0992753  49.6846493
   2.2331673  32.5232753  49.6016493   3.1911673  30.3492753  44.1626493
   3.5391673  29.5502753  44.1926493   3.8561673  30.8532753  43.9076493
   3.3411673  30.3052753  44.1296493   3.2481673  29.7982753  40.3736493
   3.5791673  29.1542753  40.8596493   3.4881673  29.5872753  39.5626493
   3.3321673  29.6722753  40.3256493   5.2161673  23.9292753  51.7126493
   4.3681673  23.8302753  51.5346493   5.2451673  24.6742753  52.1666493
   5.0951673  24.0252753  51.7536493   9.7741673  16.8892753  50.8266493
   9.6161673  17.6582753  50.4446493   9.0021673  16.6692753  51.1706493
   9.6361673  16.9702753  50.8216493   2.5631673  18.6042753  43.0416493
   2.6361673  19.4642753  43.1706493   2.5251673  18.5292753  42.1736493
   2.5681673  18.7202753  42.9326493   7.2361673  21.5302753  35.3406493
   6.7861673  22.2112753  35.6476493   7.3501673  21.0262753  36.0436493
   7.1871673  21.5562753  35.4896493   7.3351673  33.8712753  37.4446493
   8.0621673  34.3432753  37.5466493   7.5641673  33.0772753  37.7246493
   7.4771673  33.8242753  37.5016493   5.5031673  34.2632753  39.4346493
   5.7171673  34.7902753  40.0966493   6.2701673  34.0892753  39.0556493
   5.6481673  34.3152753  39.4766493   1.7771673  20.9792753  54.3316493
   1.8941673  20.5252753  53.5956493   2.0651673  21.7772753  54.1286493
   1.8371673  21.0302753  54.1926493  12.6301673  21.5032753  41.6356493
  12.2841673  22.1812753  42.0616493  11.9941673  20.9052753  41.6516493
  12.4851673  21.5152753  41.7006493   7.9421673  34.2732753  47.7396493
   8.6861673  34.7292753  47.7296493   7.8211673  34.0592753  46.9026493
   8.0341673  34.3092753  47.6146493   4.1591673  18.2192753  52.4836493
   4.3371673  17.4102753  52.2086493   4.0161673  18.6602753  51.7446493
   4.1641673  18.1652753  52.3336493   4.7531673  23.1452753  41.2566493
   5.0401673  22.9132753  40.4666493   5.4851673  23.2242753  41.7256493
   4.9031673  23.1222753  41.2096493   5.4751673  23.4842753  36.3776493
   5.7561673  24.2722753  36.6266493   4.6991673  23.6492753  36.0146493
   5.4021673  23.6252753  36.3606493   9.5161673  35.4582753  37.8446493
  10.1811673  35.3102753  37.2996493   9.8761673  35.3752753  38.6346493
   9.6681673  35.4242753  37.8806493  12.3051673  19.8262753  47.0046493
  13.0621673  19.8982753  46.5766493  12.3681673  19.0532753  47.4036493
  12.4261673  19.7232753  46.9996493   7.1961673  31.4582753  51.4436493
   7.1621673  31.8402753  52.2276493   8.0501673  31.4162753  51.2726493
   7.3171673  31.5082753  51.5346493   4.3341673  31.6552753  36.1936493
   4.1531673  32.2002753  36.8506493   5.1001673  31.9452753  35.8926493
   4.4201673  31.7792753  36.2466493   7.8411673  19.5512753  37.2476493
   8.3811673  18.8692753  37.3236493   7.9031673  19.9492753  38.0216493
   7.9301673  19.5092753  37.3736493   5.0991673  21.9272753  38.5616493
   4.5911673  21.2652753  38.3076493   5.1511673  22.4312753  37.8516493
   5.0321673  21.9042753  38.4196493   5.6481673  34.6222753  48.9416493
   6.4161673  34.5422753  48.5356493   5.0651673  34.5012753  48.3036493
   5.6751673  34.5922753  48.7876493   5.0991673  18.8682753  38.4526493
   4.6441673  18.4662753  37.8266493   5.8721673  19.0232753  38.0776493
   5.1461673  18.8322753  38.3046493  11.9251673  35.2252753  41.8426493
  11.4701673  35.9422753  42.0436493  11.3111673  34.6542753  41.6006493
  11.7671673  35.2472753  41.8366493   3.6971673  21.2352753  42.9746493
   3.7711673  21.8032753  42.3166493   3.8181673  21.7272753  43.6846493
   3.7251673  21.3922753  42.9826493   8.9221673  31.0702753  41.3866493
   9.6231673  30.5882753  41.5756493   8.2621673  30.5012753  41.4316493
   8.9281673  30.9152753  41.4206493   7.4891673  21.4052753  48.8626493
   7.3941673  21.7242753  49.6686493   6.8961673  20.7662753  48.8246493
   7.3871673  21.3572753  48.9766493   2.0111673  27.4292753  47.9376493
   2.0641673  28.2762753  48.1396493   1.7261673  27.0592753  48.6746493
   1.9771673  27.4992753  48.0756493   8.1881673  28.1242753  47.0676493
   7.6741673  27.7122753  47.6386493   8.0621673  28.9682753  47.2486493
   8.0941673  28.1882753  47.1786493   8.7451673  17.3492753  41.6986493
   8.7941673  17.0312753  42.5096493   9.0681673  16.7052753  41.2056493
   8.8001673  17.2072753  41.7456493  11.2091673  21.5852753  50.0066493
  11.9811673  21.3602753  50.3436493  10.7341673  21.8022753  50.7066493
  11.2531673  21.5842753  50.1596493  11.4411673  28.5632753  37.1946493
  11.5601673  28.2762753  38.0096493  12.2481673  28.5842753  36.8646493
  11.5771673  28.5242753  37.2666493   9.3361673  25.1002753  36.7796493
   9.1161673  25.8312753  36.3576493   8.8881673  25.1512753  37.5266493
   9.2371673  25.2152753  36.8276493  13.5231673  19.9612753  36.2326493
  12.8611673  19.3932753  36.2556493  13.3301673  20.4732753  35.5526493
  13.3971673  19.9532753  36.1356493   2.7481673  23.6552753  54.1766493
   2.2641673  24.2322753  54.6186493   2.7201673  23.9502753  53.3556493
   2.6721673  23.7842753  54.1206493  13.8461673  24.3392753  48.7886493
  14.0611673  23.5392753  48.5126493  12.9961673  24.3992753  48.5996493
  13.7521673  24.2302753  48.7196493  11.5251673  19.5192753  38.5116493
  12.2711673  19.1122753  38.7106493  11.7881673  20.2342753  38.0866493
  11.6741673  19.5652753  38.4786493   5.4681673  32.0052753  43.0876493
   4.9451673  32.6392753  42.7946493   5.7781673  31.6412753  42.3586493
   5.4361673  32.0452753  42.9366493   7.9791673  21.8072753  43.5846493
   8.3231673  21.9592753  44.3716493   7.5261673  21.0692753  43.6976493
   7.9631673  21.7202753  43.7176493   2.4551673  21.0272753  38.0416493
   2.4531673  20.9102753  37.1766493   2.2741673  21.8752753  38.1336493
   2.4281673  21.1352753  37.9276493  11.5091673  33.4542753  49.5386493
  10.8381673  33.9682753  49.7566493  11.5721673  33.5542753  48.6746493
  11.4191673  33.5452753  49.4436493   9.3001673  23.1392753  46.1386493
   8.6381673  23.4672753  46.6016493   9.4871673  23.7732753  45.5696493
   9.2301673  23.2812753  46.1226493   3.5051673  34.2032753  47.1346493
   3.2281673  33.5622753  46.6116493   3.2971673  34.9292753  46.6966493
   3.4341673  34.2162753  46.9926493   5.9451673  19.0452753  49.5676493
   6.0941673  18.2202753  49.3246493   6.3241673  19.1002753  50.3516493
   6.0231673  18.9312753  49.6476493   7.4931673  21.1082753  39.6496493
   7.9831673  21.8252753  39.5726493   6.7031673  21.3692753  39.3866493
   7.4491673  21.2522753  39.5996493   8.8071673  28.9862753  51.5596493
   9.2911673  29.7042753  51.6576493   9.2011673  28.5592753  50.9086493
   8.9371673  29.0292753  51.4776493   3.1031673  31.8312753  52.7366493
   3.4571673  31.6532753  53.5136493   2.6671673  31.1022753  52.5376493
   3.0911673  31.6972753  52.8226493   4.0751673  22.5782753  45.3746493
   4.5551673  23.2772753  45.5826493   4.4481673  21.9312753  45.8256493
   4.2011673  22.5862753  45.4716493   6.2641673  25.7472753  37.6486493
   6.2561673  26.4692753  37.1586493   5.6251673  25.8822753  38.2256493
   6.1691673  25.8742753  37.6616493  11.2361673  29.6172753  41.6296493
  11.5921673  29.2672753  42.3446493  11.2281673  28.9562753  41.0596493
  11.2881673  29.4672753  41.6506493   7.2811673  32.6832753  45.4736493
   6.6781673  32.3872753  44.9166493   7.8261673  33.1352753  44.9646493
   7.2721673  32.7062753  45.3156493   7.2941673  29.5342753  44.8736493
   6.4971673  29.7582753  45.1476493   7.5521673  28.9402753  45.4586493
   7.2141673  29.4792753  45.0006493   3.4781673  33.8622753  37.7236493
   4.1001673  34.0252753  38.3136493   3.5141673  34.5532753  37.1916493
   3.5751673  33.9882753  37.7326493  10.5541673  27.5322753  49.7196493
  10.6091673  27.6572753  48.8576493  11.3071673  27.8522753  50.0216493
  10.6731673  27.5972753  49.6366493   6.7451673  32.8812753  53.9966493
   6.9091673  33.1642753  54.8056493   7.0081673  33.5422753  53.4916493
   6.8081673  33.0212753  54.0416493  11.5861673  17.8302753  52.7066493
  10.9491673  17.4302753  52.2646493  11.6121673  17.3992753  53.4646493
  11.4961673  17.7082753  52.7526493   6.2851673  27.3382753  49.3196493
   6.1301673  27.9482753  49.9236493   6.8191673  26.7802753  49.7256493
   6.3411673  27.3462753  49.4686493   4.6691673  25.7382753  39.9776493
   4.7281673  26.3882753  40.5566493   4.4801673  25.0422753  40.4686493
   4.6501673  25.7312753  40.1356493   9.8951673  30.0672753  45.8466493
   9.4161673  30.3652753  45.1806493   9.5391673  29.2912753  46.0246493
   9.7721673  29.9962753  45.7746493   3.8921673  27.7852753  44.4086493
   3.0451673  27.5912753  44.4896493   4.2161673  27.6202753  45.2016493
   3.8141673  27.7322753  44.5376493  13.5871673  34.2332753  37.7866493
  14.2811673  33.7662753  37.5386493  13.0481673  33.6352753  38.1236493
  13.6101673  34.0752753  37.7996493  10.8261673  27.0092753  46.9656493
  10.8191673  26.2332753  47.3636493   9.9851673  27.2432753  46.9586493
  10.7011673  26.9292753  47.0236493  12.0821673  27.0802753  44.4026493
  11.7961673  27.4812753  45.1226493  12.9421673  27.0182753  44.5296493
  12.1671673  27.1302753  44.5276493   9.7441673  21.0042753  52.9426493
   9.2191673  21.4632753  53.4666493   9.3831673  20.2092753  52.9366493
   9.6131673  20.9542753  53.0186493  13.2131673  32.7132753  44.9316493
  13.5031673  32.9702753  44.1506493  13.9081673  32.8092753  45.4506493
  13.3591673  32.7652753  44.8926493   8.2361673  24.5732753  53.0186493
   8.3091673  24.6772753  53.8816493   7.6021673  25.1312753  52.7976493
   8.1531673  24.6712753  53.1136493  10.5041673  24.8922753  51.3836493
  10.8231673  25.6782753  51.5866493  10.1341673  24.6222753  52.1266493
  10.4971673  24.9682753  51.5236493   9.8181673  31.3162753  36.9136493
  10.1521673  30.5102753  36.9486493   9.0631673  31.2442753  37.3436493
   9.7561673  31.1862753  36.9826493  10.3001673  23.1502753  42.5726493
   9.5551673  22.8272753  42.8906493  10.3021673  23.9762753  42.8526493
  10.1901673  23.2242753  42.6606493  13.2021673  25.4342753  54.1186493
  13.1501673  25.0932753  53.3176493  13.9391673  25.9012753  54.0966493
  13.3031673  25.4532753  53.9966493  12.7401673  29.1102753  50.3246493
  13.3681673  28.5612753  50.0686493  12.6791673  29.6752753  49.6626493
  12.8241673  29.1132753  50.1886493   7.1921673  29.1912753  36.3166493
   7.8761673  28.6772753  36.1476493   6.7751673  29.2372753  35.5516493
   7.2311673  29.1222753  36.1786493   9.2121673  19.4802753  50.0336493
   9.9561673  19.9322753  49.9706493   8.6461673  19.9502753  49.5646493
   9.2391673  19.6172753  49.9556493   4.3901673  26.7642753  47.1116493
   4.8661673  27.1382753  47.7396493   3.5671673  26.8982753  47.3706493
   4.3391673  26.8392753  47.2426493   3.6541673  34.1572753  42.3396493
   4.2001673  34.8362753  42.3936493   3.3041673  34.2392753  41.5446493
   3.6831673  34.2702753  42.2296493  10.4971673  17.4602753  47.7036493
  10.2171673  18.2852753  47.6596493  11.2131673  17.5132753  48.1996493
  10.5621673  17.5902753  47.7706493   2.8521673  18.1752753  49.7326493
   3.5571673  18.4952753  49.3306493   3.0931673  17.3682753  49.9596493
   2.9911673  18.1032753  49.7066493   6.1461673  29.0192753  52.7176493
   6.9031673  29.3052753  52.3916493   5.5991673  29.0712753  52.0396493
   6.1771673  29.0692753  52.5686493  10.0551673  31.5692753  51.2216493
  10.4011673  31.8392753  51.9756493  10.3491673  32.1512753  50.6416493
  10.1501673  31.6952753  51.2476493  11.9181673  23.7152753  36.5606493
  12.2961673  24.3922753  36.1606493  11.0761673  23.9392753  36.5916493
  11.8491673  23.8482753  36.5056493   3.4311673  27.1612753  35.6436493
   2.6261673  26.9842753  35.3586493   3.3981673  28.0122753  35.8356493
   3.3071673  27.2602753  35.6306493   7.3771673  22.3302753  51.3856493
   6.7291673  22.8002753  51.7336493   7.9421673  22.2412753  52.0446493
   7.3651673  22.3862753  51.5346493   7.0651673  23.8672753  47.6836493
   7.3671673  24.2872753  48.3866493   7.1011673  23.0272753  47.9156493
   7.1151673  23.8052753  47.8216493   4.4901673  34.0342753  51.6086493
   4.9681673  33.4342753  51.1926493   4.1391673  33.5912753  52.2736493
   4.5091673  33.8802753  51.6456493   9.6131673  23.3142753  39.9356493
   9.8201673  23.1132753  40.7596493  10.3691673  23.5822753  39.5936493
   9.7551673  23.3242753  40.0066493   2.9081673  18.2132753  45.8406493
   2.0821673  18.0642753  46.0776493   2.8681673  18.2482753  44.9696493
   2.7801673  18.1962753  45.7466493  10.6351673  19.3972753  41.4096493
   9.9211673  18.9262753  41.5806493  10.4731673  19.7382753  40.6236493
  10.5061673  19.3782753  41.3186493  11.0781673  27.3412753  39.7896493
  11.5541673  26.6122753  39.7416493  10.2571673  27.0552753  39.7136493
  11.0271673  27.1912753  39.7706493   4.5491673  29.2532753  50.6286493
   3.7541673  29.1892753  50.9796493   4.6201673  30.1002753  50.4336493
   4.4421673  29.3682753  50.6516493   7.2941673  28.5082753  42.1446493
   7.3701673  28.8492753  42.9436493   7.4631673  27.6612753  42.2656493
   7.3301673  28.4332753  42.2806493   4.8161673  27.7822753  41.7096493
   4.5181673  27.4672753  42.4666493   5.5111673  28.2552753  41.9446493
   4.8751673  27.8052753  41.8566493   5.0381673  31.9002753  49.7366493
   5.7251673  31.7862753  50.2616493   5.1721673  32.6912753  49.3926493
   5.1591673  32.0002753  49.7636493  13.2141673  24.5092753  51.5476493
  12.3591673  24.3872753  51.6736493  13.3671673  24.1142753  50.7846493
  13.1101673  24.4322753  51.4536493   7.7271673  25.1742753  50.1236493
   7.4721673  24.4552753  50.5456493   8.5481673  25.2902753  50.3936493
   7.8111673  25.0852753  50.2256493   5.6611673  26.3642753  53.3106493
   5.9841673  27.0502753  52.8786493   4.9571673  26.6872753  53.7126493
   5.6041673  26.5132753  53.3056493   8.7451673  34.7382753  44.2396493
   8.2941673  35.3812753  44.6186493   9.4531673  34.6592753  44.7446493
   8.7831673  34.8212753  44.3706493   5.4461673  29.8282753  47.1696493
   4.7521673  30.2302753  47.5126493   6.1231673  30.2612753  47.5086493
   5.4431673  29.9512753  47.2706493  10.8231673  32.4212753  53.7496493
  11.5991673  32.0312753  53.8326493  10.3541673  32.0852753  54.4046493
  10.8681673  32.3142753  53.8586493  11.8481673  24.4542753  39.2316493
  11.9511673  24.3962753  38.3676493  12.5891673  24.1222753  39.5496493
  11.9731673  24.3972753  39.1506493   5.7681673  31.4192753  40.3386493
   5.5631673  32.2522753  40.1796493   4.9931673  31.0372753  40.4606493
   5.6231673  31.4862753  40.3336493  10.9501673  24.6002753  48.5876493
  10.9481673  23.7372753  48.7116493  11.0171673  24.9242753  49.3946493
  10.9601673  24.5202753  48.7246493   6.8291673  19.4002753  52.3696493
   6.9211673  20.1122753  52.8636493   6.1921673  18.9552753  52.7666493
   6.7481673  19.4392753  52.5016493   5.8231673  19.5902753  43.2236493
   5.1231673  20.1082753  43.1676493   5.8611673  19.2102753  42.4396493
   5.7251673  19.6112753  43.0996493   9.4211673  20.1062753  46.0236493
  10.2761673  20.2052753  46.1686493   9.0521673  20.6592753  46.5886493
   9.4931673  20.2032753  46.1286493   9.7251673  25.3862753  44.5146493
  10.3911673  25.9272753  44.6746493   9.3801673  25.6972753  43.7756493
   9.7721673  25.5122753  44.4296493  10.0381673  33.4522753  40.3216493
   9.8641673  32.7982753  40.8716493  10.7511673  33.1812753  39.8986493
  10.1181673  33.3152753  40.3406493  12.8961673  17.9442753  49.1796493
  12.8441673  17.9002753  50.0496493  13.5831673  17.4412753  48.9896493
  12.9901673  17.8642753  49.2796493   4.9811673  20.0572753  46.2246493
   4.2441673  19.6032753  46.3376493   5.5521673  19.6552753  46.7476493
   4.9561673  19.9302753  46.3186493   7.7131673  30.9052753  48.0126493
   7.9191673  31.2062753  48.8046493   7.6521673  31.6272753  47.5276493
   7.7341673  31.0562753  48.0576493   7.2471673  35.1192753  52.2586493
   6.4941673  35.1012753  51.8176493   7.4151673  35.9712753  52.3426493
   7.1611673  35.2422753  52.2056493   2.4841673  24.3862753  51.4286493
   2.1621673  23.8102753  50.8586493   2.1251673  25.1412753  51.1826493
   2.3841673  24.4122753  51.3086493   3.2801673  17.6382753  36.0556493
   3.3581673  17.8852753  35.2226493   2.5371673  18.0152753  36.3136493
   3.1821673  17.7302753  35.9706493  12.5251673  29.5442753  47.4706493
  12.4931673  28.6822753  47.3356493  11.8321673  29.8462753  47.0366493
  12.4181673  29.4612753  47.3866493  10.6301673  32.8042753  46.2676493
  11.1571673  32.7212753  45.5766493  10.2391673  32.0262753  46.3216493
  10.6501673  32.6772753  46.1736493   7.1441673  18.2482753  45.4756493
   7.8141673  18.7922753  45.6026493   6.6411673  18.6722753  44.9026493
   7.1691673  18.3912753  45.4096493   6.5031673  24.0562753  42.9686493
   7.0541673  23.4492753  43.2686493   6.0781673  24.3192753  43.6836493
   6.5221673  24.0052753  43.1176493   8.4731673  25.8872753  39.5306493
   8.5411673  25.0372753  39.7116493   7.6501673  25.9732753  39.2526493
   8.3611673  25.7742753  39.5166493   2.3921673  26.7782753  38.4686493
   2.4921673  26.9172753  37.6136493   3.2101673  26.7182753  38.7646493
   2.5271673  26.7892753  38.3856493  11.5521673  34.8422753  35.9486493
  12.1891673  34.7082753  36.5296493  11.2111673  34.0482753  35.8316493
  11.5961673  34.7052753  36.0166493  11.7471673  27.2602753  52.6816493
  12.3811673  27.0902753  53.2556493  12.1641673  27.6632753  52.0296493
  11.9021673  27.2952753  52.6706493   7.6271673  31.1072753  38.2706493
   7.3761673  30.9792753  39.0966493   7.3101673  30.4122753  37.8496493
   7.5431673  30.9862753  38.3306493  12.3721673  21.8242753  53.4196493
  12.1761673  22.4682753  53.9746493  11.6501673  21.3342753  53.4116493
  12.2371673  21.8472753  53.5006493  12.2711673  22.7652753  46.3906493
  11.4381673  23.0152753  46.3186493  12.2151673  21.9252753  46.6196493
  12.1401673  22.6782753  46.4136493   9.1581673  27.3712753  54.0366493
  10.0291673  27.3352753  54.0006493   8.9391673  27.7912753  53.3046493
   9.2551673  27.4272753  53.9236493   4.5131673  29.3152753  37.7006493
   5.2301673  28.9682753  37.3446493   4.4791673  30.1152753  37.3526493
   4.6141673  29.3822753  37.5966493   5.9221673  17.9562753  21.9394083
   5.6771673  18.4442753  21.2594083   6.7851673  17.8832753  21.8394083
   6.0131673  18.0172753  21.8244083   5.7311673  24.8722753  26.6104083
   5.2071673  25.4682753  26.9734083   6.1281673  24.5042753  27.2944083
   5.7121673  24.9062753  26.7654083  11.8751673  32.3132753  19.5814083
  12.5761673  31.7942753  19.5774083  11.2881673  31.8682753  19.1124083
  11.8921673  32.1702753  19.5114083   8.4021673  25.9392753  23.2864083
   8.4821673  25.9432753  22.4174083   7.8181673  25.3072753  23.4354083
   8.3271673  25.8462753  23.1804083   2.3911673  19.0432753  21.0944083
   2.3211673  19.7202753  20.5484083   3.1321673  18.6552753  20.8454083
   2.4901673  19.0862753  20.9764083   2.0961673  32.4642753  30.6514083
   2.2341673  33.2242753  30.2444083   2.8871673  32.0992753  30.6784083
   2.2331673  32.5232753  30.5954083   3.1911673  30.3492753  25.1564083
   3.5391673  29.5502753  25.1864083   3.8561673  30.8532753  24.9014083
   3.3411673  30.3052753  25.1234083   3.2481673  29.7982753  21.3674083
   3.5791673  29.1542753  21.8534083   3.4881673  29.5872753  20.5564083
   3.3321673  29.6722753  21.3194083   5.2161673  23.9292753  32.7064083
   4.3681673  23.8302753  32.5284083   5.2451673  24.6742753  33.1604083
   5.0951673  24.0252753  32.7474083   9.7741673  16.8892753  31.8204083
   9.6161673  17.6582753  31.4384083   9.0021673  16.6692753  32.1644083
   9.6361673  16.9702753  31.8154083   2.5631673  18.6042753  24.0354083
   2.6361673  19.4642753  24.1644083   2.5251673  18.5292753  23.1674083
   2.5681673  18.7202753  23.9264083   7.2361673  21.5302753  16.3344083
   6.7861673  22.2112753  16.6414083   7.3501673  21.0262753  17.0374083
   7.1871673  21.5562753  16.4834083   7.3351673  33.8712753  18.4384083
   8.0621673  34.3432753  18.5404083   7.5641673  33.0772753  18.7184083
   7.4771673  33.8242753  18.4954083   5.5031673  34.2632753  20.4284083
   5.7171673  34.7902753  21.0904083   6.2701673  34.0892753  20.0494083
   5.6481673  34.3152753  20.4704083   1.7771673  20.9792753  35.3254083
   1.8941673  20.5252753  34.5894083   2.0651673  21.7772753  35.1224083
   1.8371673  21.0302753  35.1864083  12.6301673  21.5032753  22.6294083
  12.2841673  22.1812753  23.0554083  11.9941673  20.9052753  22.6454083
  12.4851673  21.5152753  22.6944083   7.9421673  34.2732753  28.7334083
   8.6861673  34.7292753  28.7234083   7.8211673  34.0592753  27.8964083
   8.0341673  34.3092753  28.6084083   4.1591673  18.2192753  33.4774083
   4.3371673  17.4102753  33.2024083   4.0161673  18.6602753  32.7384083
   4.1641673  18.1652753  33.3274083   4.7531673  23.1452753  22.2504083
   5.0401673  22.9132753  21.4604083   5.4851673  23.2242753  22.7194083
   4.9031673  23.1222753  22.2034083   5.4751673  23.4842753  17.3714083
   5.7561673  24.2722753  17.6204083   4.6991673  23.6492753  17.0084083
   5.4021673  23.6252753  17.3544083   9.5161673  35.4582753  18.8384083
  10.1811673  35.3102753  18.2934083   9.8761673  35.3752753  19.6284083
   9.6681673  35.4242753  18.8744083  12.3051673  19.8262753  27.9984083
  13.0621673  19.8982753  27.5704083  12.3681673  19.0532753  28.3974083
  12.4261673  19.7232753  27.9934083   7.1961673  31.4582753  32.4374083
   7.1621673  31.8402753  33.2214083   8.0501673  31.4162753  32.2664083
   7.3171673  31.5082753  32.5284083   4.3341673  31.6552753  17.1874083
   4.1531673  32.2002753  17.8444083   5.1001673  31.9452753  16.8864083
   4.4201673  31.7792753  17.2404083   7.8411673  19.5512753  18.2414083
   8.3811673  18.8692753  18.3174083   7.9031673  19.9492753  19.0154083
   7.9301673  19.5092753  18.3674083   5.0991673  21.9272753  19.5554083
   4.5911673  21.2652753  19.3014083   5.1511673  22.4312753  18.8454083
   5.0321673  21.9042753  19.4134083   5.6481673  34.6222753  29.9354083
   6.4161673  34.5422753  29.5294083   5.0651673  34.5012753  29.2974083
   5.6751673  34.5922753  29.7814083   5.0991673  18.8682753  19.4464083
   4.6441673  18.4662753  18.8204083   5.8721673  19.0232753  19.0714083
   5.1461673  18.8322753  19.2984083  11.9251673  35.2252753  22.8364083
  11.4701673  35.9422753  23.0374083  11.3111673  34.6542753  22.5944083
  11.7671673  35.2472753  22.8304083   3.6971673  21.2352753  23.9684083
   3.7711673  21.8032753  23.3104083   3.8181673  21.7272753  24.6784083
   3.7251673  21.3922753  23.9764083   8.9221673  31.0702753  22.3804083
   9.6231673  30.5882753  22.5694083   8.2621673  30.5012753  22.4254083
   8.9281673  30.9152753  22.4144083   7.4891673  21.4052753  29.8564083
   7.3941673  21.7242753  30.6624083   6.8961673  20.7662753  29.8184083
   7.3871673  21.3572753  29.9704083   2.0111673  27.4292753  28.9314083
   2.0641673  28.2762753  29.1334083   1.7261673  27.0592753  29.6684083
   1.9771673  27.4992753  29.0694083   8.1881673  28.1242753  28.0614083
   7.6741673  27.7122753  28.6324083   8.0621673  28.9682753  28.2424083
   8.0941673  28.1882753  28.1724083   8.7451673  17.3492753  22.6924083
   8.7941673  17.0312753  23.5034083   9.0681673  16.7052753  22.1994083
   8.8001673  17.2072753  22.7394083  11.2091673  21.5852753  31.0004083
  11.9811673  21.3602753  31.3374083  10.7341673  21.8022753  31.7004083
  11.2531673  21.5842753  31.1534083  11.4411673  28.5632753  18.1884083
  11.5601673  28.2762753  19.0034083  12.2481673  28.5842753  17.8584083
  11.5771673  28.5242753  18.2604083  13.6751673  33.0722753  32.4424083
  12.9931673  33.3822753  31.9954083  13.3061673  32.6142753  33.0874083
  13.5191673  33.0502753  32.4714083   9.3361673  25.1002753  17.7734083
   9.1161673  25.8312753  17.3514083   8.8881673  25.1512753  18.5204083
   9.2371673  25.2152753  17.8214083  13.5231673  19.9612753  17.2264083
  12.8611673  19.3932753  17.2494083  13.3301673  20.4732753  16.5464083
  13.3971673  19.9532753  17.1294083   2.7481673  23.6552753  35.1704083
   2.2641673  24.2322753  35.6124083   2.7201673  23.9502753  34.3494083
   2.6721673  23.7842753  35.1144083  13.8461673  24.3392753  29.7824083
  14.0611673  23.5392753  29.5064083  12.9961673  24.3992753  29.5934083
  13.7521673  24.2302753  29.7134083  11.5251673  19.5192753  19.5054083
  12.2711673  19.1122753  19.7044083  11.7881673  20.2342753  19.0804083
  11.6741673  19.5652753  19.4724083   5.4681673  32.0052753  24.0814083
   4.9451673  32.6392753  23.7884083   5.7781673  31.6412753  23.3524083
   5.4361673  32.0452753  23.9304083   7.9791673  21.8072753  24.5784083
   8.3231673  21.9592753  25.3654083   7.5261673  21.0692753  24.6914083
   7.9631673  21.7202753  24.7114083   2.4551673  21.0272753  19.0354083
   2.4531673  20.9102753  18.1704083   2.2741673  21.8752753  19.1274083
   2.4281673  21.1352753  18.9214083  11.5091673  33.4542753  30.5324083
  10.8381673  33.9682753  30.7504083  11.5721673  33.5542753  29.6684083
  11.4191673  33.5452753  30.4374083   9.3001673  23.1392753  27.1324083
   8.6381673  23.4672753  27.5954083   9.4871673  23.7732753  26.5634083
   9.2301673  23.2812753  27.1164083   3.5051673  34.2032753  28.1284083
   3.2281673  33.5622753  27.6054083   3.2971673  34.9292753  27.6904083
   3.4341673  34.2162753  27.9864083   5.9451673  19.0452753  30.5614083
   6.0941673  18.2202753  30.3184083   6.3241673  19.1002753  31.3454083
   6.0231673  18.9312753  30.6414083   7.4931673  21.1082753  20.6434083
   7.9831673  21.8252753  20.5664083   6.7031673  21.3692753  20.3804083
   7.4491673  21.2522753  20.5934083   8.8071673  28.9862753  32.5534083
   9.2911673  29.7042753  32.6514083   9.2011673  28.5592753  31.9024083
   8.9371673  29.0292753  32.4714083   3.1031673  31.8312753  33.7304083
   3.4571673  31.6532753  34.5074083   2.6671673  31.1022753  33.5314083
   3.0911673  31.6972753  33.8164083   4.0751673  22.5782753  26.3684083
   4.5551673  23.2772753  26.5764083   4.4481673  21.9312753  26.8194083
   4.2011673  22.5862753  26.4654083   6.2641673  25.7472753  18.6424083
   6.2561673  26.4692753  18.1524083   5.6251673  25.8822753  19.2194083
   6.1691673  25.8742753  18.6554083  11.2361673  29.6172753  22.6234083
  11.5921673  29.2672753  23.3384083  11.2281673  28.9562753  22.0534083
  11.2881673  29.4672753  22.6444083   7.2811673  32.6832753  26.4674083
   6.6781673  32.3872753  25.9104083   7.8261673  33.1352753  25.9584083
   7.2721673  32.7062753  26.3094083   7.2941673  29.5342753  25.8674083
   6.4971673  29.7582753  26.1414083   7.5521673  28.9402753  26.4524083
   7.2141673  29.4792753  25.9944083   3.4781673  33.8622753  18.7174083
   4.1001673  34.0252753  19.3074083   3.5141673  34.5532753  18.1854083
   3.5751673  33.9882753  18.7264083  10.5541673  27.5322753  30.7134083
  10.6091673  27.6572753  29.8514083  11.3071673  27.8522753  31.0154083
  10.6731673  27.5972753  30.6304083   6.7451673  32.8812753  34.9904083
   6.9091673  33.1642753  35.7994083   7.0081673  33.5422753  34.4854083
   6.8081673  33.0212753  35.0354083  11.5861673  17.8302753  33.7004083
  10.9491673  17.4302753  33.2584083  11.6121673  17.3992753  34.4584083
  11.4961673  17.7082753  33.7464083   6.2851673  27.3382753  30.3134083
   6.1301673  27.9482753  30.9174083   6.8191673  26.7802753  30.7194083
   6.3411673  27.3462753  30.4624083   4.6691673  25.7382753  20.9714083
   4.7281673  26.3882753  21.5504083   4.4801673  25.0422753  21.4624083
   4.6501673  25.7312753  21.1294083   9.8951673  30.0672753  26.8404083
   9.4161673  30.3652753  26.1744083   9.5391673  29.2912753  27.0184083
   9.7721673  29.9962753  26.7684083   3.8921673  27.7852753  25.4024083
   3.0451673  27.5912753  25.4834083   4.2161673  27.6202753  26.1954083
   3.8141673  27.7322753  25.5314083  13.5871673  34.2332753  18.7804083
  14.2811673  33.7662753  18.5324083  13.0481673  33.6352753  19.1174083
  13.6101673  34.0752753  18.7934083  10.8261673  27.0092753  27.9594083
  10.8191673  26.2332753  28.3574083   9.9851673  27.2432753  27.9524083
  10.7011673  26.9292753  28.0174083  12.0821673  27.0802753  25.3964083
  11.7961673  27.4812753  26.1164083  12.9421673  27.0182753  25.5234083
  12.1671673  27.1302753  25.5214083   9.7441673  21.0042753  33.9364083
   9.2191673  21.4632753  34.4604083   9.3831673  20.2092753  33.9304083
   9.6131673  20.9542753  34.0124083  13.2131673  32.7132753  25.9254083
  13.5031673  32.9702753  25.1444083  13.9081673  32.8092753  26.4444083
  13.3591673  32.7652753  25.8864083   8.2361673  24.5732753  34.0124083
   8.3091673  24.6772753  34.8754083   7.6021673  25.1312753  33.7914083
   8.1531673  24.6712753  34.1074083  10.5041673  24.8922753  32.3774083
  10.8231673  25.6782753  32.5804083  10.1341673  24.6222753  33.1204083
  10.4971673  24.9682753  32.5174083   9.8181673  31.3162753  17.9074083
  10.1521673  30.5102753  17.9424083   9.0631673  31.2442753  18.3374083
   9.7561673  31.1862753  17.9764083  10.3001673  23.1502753  23.5664083
   9.5551673  22.8272753  23.8844083  10.3021673  23.9762753  23.8464083
  10.1901673  23.2242753  23.6544083  13.2021673  25.4342753  35.1124083
  13.1501673  25.0932753  34.3114083  13.9391673  25.9012753  35.0904083
  13.3031673  25.4532753  34.9904083  12.7401673  29.1102753  31.3184083
  13.3681673  28.5612753  31.0624083  12.6791673  29.6752753  30.6564083
  12.8241673  29.1132753  31.1824083   7.1921673  29.1912753  17.3104083
   7.8761673  28.6772753  17.1414083   6.7751673  29.2372753  16.5454083
   7.2311673  29.1222753  17.1724083   9.2121673  19.4802753  31.0274083
   9.9561673  19.9322753  30.9644083   8.6461673  19.9502753  30.5584083
   9.2391673  19.6172753  30.9494083   4.3901673  26.7642753  28.1054083
   4.8661673  27.1382753  28.7334083   3.5671673  26.8982753  28.3644083
   4.3391673  26.8392753  28.2364083   3.6541673  34.1572753  23.3334083
   4.2001673  34.8362753  23.3874083   3.3041673  34.2392753  22.5384083
   3.6831673  34.2702753  23.2234083  10.4971673  17.4602753  28.6974083
  10.2171673  18.2852753  28.6534083  11.2131673  17.5132753  29.1934083
  10.5621673  17.5902753  28.7644083   2.8521673  18.1752753  30.7264083
   3.5571673  18.4952753  30.3244083   3.0931673  17.3682753  30.9534083
   2.9911673  18.1032753  30.7004083   6.1461673  29.0192753  33.7114083
   6.9031673  29.3052753  33.3854083   5.5991673  29.0712753  33.0334083
   6.1771673  29.0692753  33.5624083  10.0551673  31.5692753  32.2154083
  10.4011673  31.8392753  32.9694083  10.3491673  32.1512753  31.6354083
  10.1501673  31.6952753  32.2414083  11.9181673  23.7152753  17.5544083
  12.2961673  24.3922753  17.1544083  11.0761673  23.9392753  17.5854083
  11.8491673  23.8482753  17.4994083   3.4311673  27.1612753  16.6374083
   2.6261673  26.9842753  16.3524083   3.3981673  28.0122753  16.8294083
   3.3071673  27.2602753  16.6244083   7.3771673  22.3302753  32.3794083
   6.7291673  22.8002753  32.7274083   7.9421673  22.2412753  33.0384083
   7.3651673  22.3862753  32.5284083   7.0651673  23.8672753  28.6774083
   7.3671673  24.2872753  29.3804083   7.1011673  23.0272753  28.9094083
   7.1151673  23.8052753  28.8154083   4.4901673  34.0342753  32.6024083
   4.9681673  33.4342753  32.1864083   4.1391673  33.5912753  33.2674083
   4.5091673  33.8802753  32.6394083   9.6131673  23.3142753  20.9294083
   9.8201673  23.1132753  21.7534083  10.3691673  23.5822753  20.5874083
   9.7551673  23.3242753  21.0004083   2.9081673  18.2132753  26.8344083
   2.0821673  18.0642753  27.0714083   2.8681673  18.2482753  25.9634083
   2.7801673  18.1962753  26.7404083  10.6351673  19.3972753  22.4034083
   9.9211673  18.9262753  22.5744083  10.4731673  19.7382753  21.6174083
  10.5061673  19.3782753  22.3124083  11.0781673  27.3412753  20.7834083
  11.5541673  26.6122753  20.7354083  10.2571673  27.0552753  20.7074083
  11.0271673  27.1912753  20.7644083   4.5491673  29.2532753  31.6224083
   3.7541673  29.1892753  31.9734083   4.6201673  30.1002753  31.4274083
   4.4421673  29.3682753  31.6454083   7.2941673  28.5082753  23.1384083
   7.3701673  28.8492753  23.9374083   7.4631673  27.6612753  23.2594083
   7.3301673  28.4332753  23.2744083   4.8161673  27.7822753  22.7034083
   4.5181673  27.4672753  23.4604083   5.5111673  28.2552753  22.9384083
   4.8751673  27.8052753  22.8504083   5.0381673  31.9002753  30.7304083
   5.7251673  31.7862753  31.2554083   5.1721673  32.6912753  30.3864083
   5.1591673  32.0002753  30.7574083  13.2141673  24.5092753  32.5414083
  12.3591673  24.3872753  32.6674083  13.3671673  24.1142753  31.7784083
  13.1101673  24.4322753  32.4474083   7.7271673  25.1742753  31.1174083
   7.4721673  24.4552753  31.5394083   8.5481673  25.2902753  31.3874083
   7.8111673  25.0852753  31.2194083   5.6611673  26.3642753  34.3044083
   5.9841673  27.0502753  33.8724083   4.9571673  26.6872753  34.7064083
   5.6041673  26.5132753  34.2994083   8.7451673  34.7382753  25.2334083
   8.2941673  35.3812753  25.6124083   9.4531673  34.6592753  25.7384083
   8.7831673  34.8212753  25.3644083   5.4461673  29.8282753  28.1634083
   4.7521673  30.2302753  28.5064083   6.1231673  30.2612753  28.5024083
   5.4431673  29.9512753  28.2644083  10.8231673  32.4212753  34.7434083
  11.5991673  32.0312753  34.8264083  10.3541673  32.0852753  35.3984083
  10.8681673  32.3142753  34.8524083  11.8481673  24.4542753  20.2254083
  11.9511673  24.3962753  19.3614083  12.5891673  24.1222753  20.5434083
  11.9731673  24.3972753  20.1444083   5.7681673  31.4192753  21.3324083
   5.5631673  32.2522753  21.1734083   4.9931673  31.0372753  21.4544083
   5.6231673  31.4862753  21.3274083  10.9501673  24.6002753  29.5814083
  10.9481673  23.7372753  29.7054083  11.0171673  24.9242753  30.3884083
  10.9601673  24.5202753  29.7184083   6.8291673  19.4002753  33.3634083
   6.9211673  20.1122753  33.8574083   6.1921673  18.9552753  33.7604083
   6.7481673  19.4392753  33.4954083   5.8231673  19.5902753  24.2174083
   5.1231673  20.1082753  24.1614083   5.8611673  19.2102753  23.4334083
   5.7251673  19.6112753  24.0934083   9.4211673  20.1062753  27.0174083
  10.2761673  20.2052753  27.1624083   9.0521673  20.6592753  27.5824083
   9.4931673  20.2032753  27.1224083   9.7251673  25.3862753  25.5084083
  10.3911673  25.9272753  25.6684083   9.3801673  25.6972753  24.7694083
   9.7721673  25.5122753  25.4234083  10.0381673  33.4522753  21.3154083
   9.8641673  32.7982753  21.8654083  10.7511673  33.1812753  20.8924083
  10.1181673  33.3152753  21.3344083  12.8961673  17.9442753  30.1734083
  12.8441673  17.9002753  31.0434083  13.5831673  17.4412753  29.9834083
  12.9901673  17.8642753  30.2734083   4.9811673  20.0572753  27.2184083
   4.2441673  19.6032753  27.3314083   5.5521673  19.6552753  27.7414083
   4.9561673  19.9302753  27.3124083   7.7131673  30.9052753  29.0064083
   7.9191673  31.2062753  29.7984083   7.6521673  31.6272753  28.5214083
   7.7341673  31.0562753  29.0514083   7.2471673  35.1192753  33.2524083
   6.4941673  35.1012753  32.8114083   7.4151673  35.9712753  33.3364083
   7.1611673  35.2422753  33.1994083   2.4841673  24.3862753  32.4224083
   2.1621673  23.8102753  31.8524083   2.1251673  25.1412753  32.1764083
   2.3841673  24.4122753  32.3024083   3.2801673  17.6382753  17.0494083
   3.3581673  17.8852753  16.2164083   2.5371673  18.0152753  17.3074083
   3.1821673  17.7302753  16.9644083  12.5251673  29.5442753  28.4644083
  12.4931673  28.6822753  28.3294083  11.8321673  29.8462753  28.0304083
  12.4181673  29.4612753  28.3804083  10.6301673  32.8042753  27.2614083
  11.1571673  32.7212753  26.5704083  10.2391673  32.0262753  27.3154083
  10.6501673  32.6772753  27.1674083   7.1441673  18.2482753  26.4694083
   7.8141673  18.7922753  26.5964083   6.6411673  18.6722753  25.8964083
   7.1691673  18.3912753  26.4034083   6.5031673  24.0562753  23.9624083
   7.0541673  23.4492753  24.2624083   6.0781673  24.3192753  24.6774083
   6.5221673  24.0052753  24.1114083   8.4731673  25.8872753  20.5244083
   8.5411673  25.0372753  20.7054083   7.6501673  25.9732753  20.2464083
   8.3611673  25.7742753  20.5104083   2.3921673  26.7782753  19.4624083
   2.4921673  26.9172753  18.6074083   3.2101673  26.7182753  19.7584083
   2.5271673  26.7892753  19.3794083  11.5521673  34.8422753  16.9424083
  12.1891673  34.7082753  17.5234083  11.2111673  34.0482753  16.8254083
  11.5961673  34.7052753  17.0104083  11.7471673  27.2602753  33.6754083
  12.3811673  27.0902753  34.2494083  12.1641673  27.6632753  33.0234083
  11.9021673  27.2952753  33.6644083   7.6271673  31.1072753  19.2644083
   7.3761673  30.9792753  20.0904083   7.3101673  30.4122753  18.8434083
   7.5431673  30.9862753  19.3244083  12.3721673  21.8242753  34.4134083
  12.1761673  22.4682753  34.9684083  11.6501673  21.3342753  34.4054083
  12.2371673  21.8472753  34.4944083  12.2711673  22.7652753  27.3844083
  11.4381673  23.0152753  27.3124083  12.2151673  21.9252753  27.6134083
  12.1401673  22.6782753  27.4074083   9.1581673  27.3712753  35.0304083
  10.0291673  27.3352753  34.9944083   8.9391673  27.7912753  34.2984083
   9.2551673  27.4272753  34.9174083   4.5131673  29.3152753  18.6944083
   5.2301673  28.9682753  18.3384083   4.4791673  30.1152753  18.3464083
   4.6141673  29.3822753  18.5904083   5.9221673  17.9562753   2.9331673
   5.6771673  18.4442753   2.2531673   6.7851673  17.8832753   2.8331673
   6.0131673  18.0172753   2.8181673   5.7311673  24.8722753   7.6041673
   5.2071673  25.4682753   7.9671673   6.1281673  24.5042753   8.2881673
   5.7121673  24.9062753   7.7591673   8.4021673  25.9392753   4.2801673
   8.4821673  25.9432753   3.4111673   7.8181673  25.3072753   4.4291673
   8.3271673  25.8462753   4.1741673   2.3911673  19.0432753   2.0881673
   2.3211673  19.7202753   1.5421673   3.1321673  18.6552753   1.8391673
   2.4901673  19.0862753   1.9701673   2.0961673  32.4642753  11.6451673
   2.2341673  33.2242753  11.2381673   2.8871673  32.0992753  11.6721673
   2.2331673  32.5232753  11.5891673   3.1911673  30.3492753   6.1501673
   3.5391673  29.5502753   6.1801673   3.8561673  30.8532753   5.8951673
   3.3411673  30.3052753   6.1171673   3.2481673  29.7982753   2.3611673
   3.5791673  29.1542753   2.8471673   3.4881673  29.5872753   1.5501673
   3.3321673  29.6722753   2.3131673   5.2161673  23.9292753  13.7001673
   4.3681673  23.8302753  13.5221673   5.2451673  24.6742753  14.1541673
   5.0951673  24.0252753  13.7411673   9.7741673  16.8892753  12.8141673
   9.6161673  17.6582753  12.4321673   9.0021673  16.6692753  13.1581673
   9.6361673  16.9702753  12.8091673   2.5631673  18.6042753   5.0291673
   2.6361673  19.4642753   5.1581673   2.5251673  18.5292753   4.1611673
   2.5681673  18.7202753   4.9201673   1.7771673  20.9792753  16.3191673
   1.8941673  20.5252753  15.5831673   2.0651673  21.7772753  16.1161673
   1.8371673  21.0302753  16.1801673  12.6301673  21.5032753   3.6231673
  12.2841673  22.1812753   4.0491673  11.9941673  20.9052753   3.6391673
  12.4851673  21.5152753   3.6881673   7.9421673  34.2732753   9.7271673
   8.6861673  34.7292753   9.7171673   7.8211673  34.0592753   8.8901673
   8.0341673  34.3092753   9.6021673   4.1591673  18.2192753  14.4711673
   4.3371673  17.4102753  14.1961673   4.0161673  18.6602753  13.7321673
   4.1641673  18.1652753  14.3211673   4.7531673  23.1452753   3.2441673
   5.0401673  22.9132753   2.4541673   5.4851673  23.2242753   3.7131673
   4.9031673  23.1222753   3.1971673  12.3051673  19.8262753   8.9921673
  13.0621673  19.8982753   8.5641673  12.3681673  19.0532753   9.3911673
  12.4261673  19.7232753   8.9871673   7.1961673  31.4582753  13.4311673
   7.1621673  31.8402753  14.2151673   8.0501673  31.4162753  13.2601673
   7.3171673  31.5082753  13.5221673   5.6481673  34.6222753  10.9291673
   6.4161673  34.5422753  10.5231673   5.0651673  34.5012753  10.2911673
   5.6751673  34.5922753  10.7751673  11.9251673  35.2252753   3.8301673
  11.4701673  35.9422753   4.0311673  11.3111673  34.6542753   3.5881673
  11.7671673  35.2472753   3.8241673   3.6971673  21.2352753   4.9621673
   3.7711673  21.8032753   4.3041673   3.8181673  21.7272753   5.6721673
   3.7251673  21.3922753   4.9701673   8.9221673  31.0702753   3.3741673
   9.6231673  30.5882753   3.5631673   8.2621673  30.5012753   3.4191673
   8.9281673  30.9152753   3.4081673   7.4891673  21.4052753  10.8501673
   7.3941673  21.7242753  11.6561673   6.8961673  20.7662753  10.8121673
   7.3871673  21.3572753  10.9641673   2.0111673  27.4292753   9.9251673
   2.0641673  28.2762753  10.1271673   1.7261673  27.0592753  10.6621673
   1.9771673  27.4992753  10.0631673   8.1881673  28.1242753   9.0551673
   7.6741673  27.7122753   9.6261673   8.0621673  28.9682753   9.2361673
   8.0941673  28.1882753   9.1661673   8.7451673  17.3492753   3.6861673
   8.7941673  17.0312753   4.4971673   9.0681673  16.7052753   3.1931673
   8.8001673  17.2072753   3.7331673  11.2091673  21.5852753  11.9941673
  11.9811673  21.3602753  12.3311673  10.7341673  21.8022753  12.6941673
  11.2531673  21.5842753  12.1471673  13.6751673  33.0722753  13.4361673
  12.9931673  33.3822753  12.9891673  13.3061673  32.6142753  14.0811673
  13.5191673  33.0502753  13.4651673   2.7481673  23.6552753  16.1641673
   2.2641673  24.2322753  16.6061673   2.7201673  23.9502753  15.3431673
   2.6721673  23.7842753  16.1081673  13.8461673  24.3392753  10.7761673
  14.0611673  23.5392753  10.5001673  12.9961673  24.3992753  10.5871673
  13.7521673  24.2302753  10.7071673   5.4681673  32.0052753   5.0751673
   4.9451673  32.6392753   4.7821673   5.7781673  31.6412753   4.3461673
   5.4361673  32.0452753   4.9241673   7.9791673  21.8072753   5.5721673
   8.3231673  21.9592753   6.3591673   7.5261673  21.0692753   5.6851673
   7.9631673  21.7202753   5.7051673  11.5091673  33.4542753  11.5261673
  10.8381673  33.9682753  11.7441673  11.5721673  33.5542753  10.6621673
  11.4191673  33.5452753  11.4311673   9.3001673  23.1392753   8.1261673
   8.6381673  23.4672753   8.5891673   9.4871673  23.7732753   7.5571673
   9.2301673  23.2812753   8.1101673   3.5051673  34.2032753   9.1221673
   3.2281673  33.5622753   8.5991673   3.2971673  34.9292753   8.6841673
   3.4341673  34.2162753   8.9801673   5.9451673  19.0452753  11.5551673
   6.0941673  18.2202753  11.3121673   6.3241673  19.1002753  12.3391673
   6.0231673  18.9312753  11.6351673   8.8071673  28.9862753  13.5471673
   9.2911673  29.7042753  13.6451673   9.2011673  28.5592753  12.8961673
   8.9371673  29.0292753  13.4651673   3.1031673  31.8312753  14.7241673
   3.4571673  31.6532753  15.5011673   2.6671673  31.1022753  14.5251673
   3.0911673  31.6972753  14.8101673   4.0751673  22.5782753   7.3621673
   4.5551673  23.2772753   7.5701673   4.4481673  21.9312753   7.8131673
   4.2011673  22.5862753   7.4591673  11.2361673  29.6172753   3.6171673
  11.5921673  29.2672753   4.3321673  11.2281673  28.9562753   3.0471673
  11.2881673  29.4672753   3.6381673   7.2811673  32.6832753   7.4611673
   6.6781673  32.3872753   6.9041673   7.8261673  33.1352753   6.9521673
   7.2721673  32.7062753   7.3031673   7.2941673  29.5342753   6.8611673
   6.4971673  29.7582753   7.1351673   7.5521673  28.9402753   7.4461673
   7.2141673  29.4792753   6.9881673  10.5541673  27.5322753  11.7071673
  10.6091673  27.6572753  10.8451673  11.3071673  27.8522753  12.0091673
  10.6731673  27.5972753  11.6241673   6.7451673  32.8812753  15.9841673
   6.9091673  33.1642753  16.7931673   7.0081673  33.5422753  15.4791673
   6.8081673  33.0212753  16.0291673  11.5861673  17.8302753  14.6941673
  10.9491673  17.4302753  14.2521673  11.6121673  17.3992753  15.4521673
  11.4961673  17.7082753  14.7401673   6.2851673  27.3382753  11.3071673
   6.1301673  27.9482753  11.9111673   6.8191673  26.7802753  11.7131673
   6.3411673  27.3462753  11.4561673   4.6691673  25.7382753   1.9651673
   4.7281673  26.3882753   2.5441673   4.4801673  25.0422753   2.4561673
   4.6501673  25.7312753   2.1231673   9.8951673  30.0672753   7.8341673
   9.4161673  30.3652753   7.1681673   9.5391673  29.2912753   8.0121673
   9.7721673  29.9962753   7.7621673   3.8921673  27.7852753   6.3961673
   3.0451673  27.5912753   6.4771673   4.2161673  27.6202753   7.1891673
   3.8141673  27.7322753   6.5251673  10.8261673  27.0092753   8.9531673
  10.8191673  26.2332753   9.3511673   9.9851673  27.2432753   8.9461673
  10.7011673  26.9292753   9.0111673  12.0821673  27.0802753   6.3901673
  11.7961673  27.4812753   7.1101673  12.9421673  27.0182753   6.5171673
  12.1671673  27.1302753   6.5151673   9.7441673  21.0042753  14.9301673
   9.2191673  21.4632753  15.4541673   9.3831673  20.2092753  14.9241673
   9.6131673  20.9542753  15.0061673  13.2131673  32.7132753   6.9191673
  13.5031673  32.9702753   6.1381673  13.9081673  32.8092753   7.4381673
  13.3591673  32.7652753   6.8801673   8.2361673  24.5732753  15.0061673
   8.3091673  24.6772753  15.8691673   7.6021673  25.1312753  14.7851673
   8.1531673  24.6712753  15.1011673  10.5041673  24.8922753  13.3711673
  10.8231673  25.6782753  13.5741673  10.1341673  24.6222753  14.1141673
  10.4971673  24.9682753  13.5111673  10.3001673  23.1502753   4.5601673
   9.5551673  22.8272753   4.8781673  10.3021673  23.9762753   4.8401673
  10.1901673  23.2242753   4.6481673  13.2021673  25.4342753  16.1061673
  13.1501673  25.0932753  15.3051673  13.9391673  25.9012753  16.0841673
  13.3031673  25.4532753  15.9841673  12.7401673  29.1102753  12.3121673
  13.3681673  28.5612753  12.0561673  12.6791673  29.6752753  11.6501673
  12.8241673  29.1132753  12.1761673   9.2121673  19.4802753  12.0211673
   9.9561673  19.9322753  11.9581673   8.6461673  19.9502753  11.5521673
   9.2391673  19.6172753  11.9431673   4.3901673  26.7642753   9.0991673
   4.8661673  27.1382753   9.7271673   3.5671673  26.8982753   9.3581673
   4.3391673  26.8392753   9.2301673   3.6541673  34.1572753   4.3271673
   4.2001673  34.8362753   4.3811673   3.3041673  34.2392753   3.5321673
   3.6831673  34.2702753   4.2171673  10.4971673  17.4602753   9.6911673
  10.2171673  18.2852753   9.6471673  11.2131673  17.5132753  10.1871673
  10.5621673  17.5902753   9.7581673   2.8521673  18.1752753  11.7201673
   3.5571673  18.4952753  11.3181673   3.0931673  17.3682753  11.9471673
   2.9911673  18.1032753  11.6941673   6.1461673  29.0192753  14.7051673
   6.9031673  29.3052753  14.3791673   5.5991673  29.0712753  14.0271673
   6.1771673  29.0692753  14.5561673  10.0551673  31.5692753  13.2091673
  10.4011673  31.8392753  13.9631673  10.3491673  32.1512753  12.6291673
  10.1501673  31.6952753  13.2351673   7.3771673  22.3302753  13.3731673
   6.7291673  22.8002753  13.7211673   7.9421673  22.2412753  14.0321673
   7.3651673  22.3862753  13.5221673   7.0651673  23.8672753   9.6711673
   7.3671673  24.2872753  10.3741673   7.1011673  23.0272753   9.9031673
   7.1151673  23.8052753   9.8091673   4.4901673  34.0342753  13.5961673
   4.9681673  33.4342753  13.1801673   4.1391673  33.5912753  14.2611673
   4.5091673  33.8802753  13.6331673   9.6131673  23.3142753   1.9231673
   9.8201673  23.1132753   2.7471673  10.3691673  23.5822753   1.5811673
   9.7551673  23.3242753   1.9941673   2.9081673  18.2132753   7.8281673
   2.0821673  18.0642753   8.0651673   2.8681673  18.2482753   6.9571673
   2.7801673  18.1962753   7.7341673  10.6351673  19.3972753   3.3971673
   9.9211673  18.9262753   3.5681673  10.4731673  19.7382753   2.6111673
  10.5061673  19.3782753   3.3061673  11.0781673  27.3412753   1.7771673
  11.5541673  26.6122753   1.7291673  10.2571673  27.0552753   1.7011673
  11.0271673  27.1912753   1.7581673   4.5491673  29.2532753  12.6161673
   3.7541673  29.1892753  12.9671673   4.6201673  30.1002753  12.4211673
   4.4421673  29.3682753  12.6391673   7.2941673  28.5082753   4.1321673
   7.3701673  28.8492753   4.9311673   7.4631673  27.6612753   4.2531673
   7.3301673  28.4332753   4.2681673   4.8161673  27.7822753   3.6971673
   4.5181673  27.4672753   4.4541673   5.5111673  28.2552753   3.9321673
   4.8751673  27.8052753   3.8441673   5.0381673  31.9002753  11.7241673
   5.7251673  31.7862753  12.2491673   5.1721673  32.6912753  11.3801673
   5.1591673  32.0002753  11.7511673  13.2141673  24.5092753  13.5351673
  12.3591673  24.3872753  13.6611673  13.3671673  24.1142753  12.7721673
  13.1101673  24.4322753  13.4411673   7.7271673  25.1742753  12.1111673
   7.4721673  24.4552753  12.5331673   8.5481673  25.2902753  12.3811673
   7.8111673  25.0852753  12.2131673   5.6611673  26.3642753  15.2981673
   5.9841673  27.0502753  14.8661673   4.9571673  26.6872753  15.7001673
   5.6041673  26.5132753  15.2931673   8.7451673  34.7382753   6.2271673
   8.2941673  35.3812753   6.6061673   9.4531673  34.6592753   6.7321673
   8.7831673  34.8212753   6.3581673   5.4461673  29.8282753   9.1571673
   4.7521673  30.2302753   9.5001673   6.1231673  30.2612753   9.4961673
   5.4431673  29.9512753   9.2581673  10.8231673  32.4212753  15.7371673
  11.5991673  32.0312753  15.8201673  10.3541673  32.0852753  16.3921673
  10.8681673  32.3142753  15.8461673   5.7681673  31.4192753   2.3261673
   5.5631673  32.2522753   2.1671673   4.9931673  31.0372753   2.4481673
   5.6231673  31.4862753   2.3211673  10.9501673  24.6002753  10.5751673
  10.9481673  23.7372753  10.6991673  11.0171673  24.9242753  11.3821673
  10.9601673  24.5202753  10.7121673   6.8291673  19.4002753  14.3571673
   6.9211673  20.1122753  14.8511673   6.1921673  18.9552753  14.7541673
   6.7481673  19.4392753  14.4891673   5.8231673  19.5902753   5.2111673
   5.1231673  20.1082753   5.1551673   5.8611673  19.2102753   4.4271673
   5.7251673  19.6112753   5.0871673   9.4211673  20.1062753   8.0111673
  10.2761673  20.2052753   8.1561673   9.0521673  20.6592753   8.5761673
   9.4931673  20.2032753   8.1161673   9.7251673  25.3862753   6.5021673
  10.3911673  25.9272753   6.6621673   9.3801673  25.6972753   5.7631673
   9.7721673  25.5122753   6.4171673  10.0381673  33.4522753   2.3091673
   9.8641673  32.7982753   2.8591673  10.7511673  33.1812753   1.8861673
  10.1181673  33.3152753   2.3281673  12.8961673  17.9442753  11.1671673
  12.8441673  17.9002753  12.0371673  13.5831673  17.4412753  10.9771673
  12.9901673  17.8642753  11.2671673   4.9811673  20.0572753   8.2121673
   4.2441673  19.6032753   8.3251673   5.5521673  19.6552753   8.7351673
   4.9561673  19.9302753   8.3061673   7.7131673  30.9052753  10.0001673
   7.9191673  31.2062753  10.7921673   7.6521673  31.6272753   9.5151673
   7.7341673  31.0562753  10.0451673   7.2471673  35.1192753  14.2461673
   6.4941673  35.1012753  13.8051673   7.4151673  35.9712753  14.3301673
   7.1611673  35.2422753  14.1931673   2.4841673  24.3862753  13.4161673
   2.1621673  23.8102753  12.8461673   2.1251673  25.1412753  13.1701673
   2.3841673  24.4122753  13.2961673  12.5251673  29.5442753   9.4581673
  12.4931673  28.6822753   9.3231673  11.8321673  29.8462753   9.0241673
  12.4181673  29.4612753   9.3741673  10.6301673  32.8042753   8.2551673
  11.1571673  32.7212753   7.5641673  10.2391673  32.0262753   8.3091673
  10.6501673  32.6772753   8.1611673   7.1441673  18.2482753   7.4631673
   7.8141673  18.7922753   7.5901673   6.6411673  18.6722753   6.8901673
   7.1691673  18.3912753   7.3971673   6.5031673  24.0562753   4.9561673
   7.0541673  23.4492753   5.2561673   6.0781673  24.3192753   5.6711673
   6.5221673  24.0052753   5.1051673  11.7471673  27.2602753  14.6691673
  12.3811673  27.0902753  15.2431673  12.1641673  27.6632753  14.0171673
  11.9021673  27.2952753  14.6581673  12.3721673  21.8242753  15.4071673
  12.1761673  22.4682753  15.9621673  11.6501673  21.3342753  15.3991673
  12.2371673  21.8472753  15.4881673  12.2711673  22.7652753   8.3781673
  11.4381673  23.0152753   8.3061673  12.2151673  21.9252753   8.6071673
  12.1401673  22.6782753   8.4011673   9.1581673  27.3712753  16.0241673
  10.0291673  27.3352753  15.9881673   8.9391673  27.7912753  15.2921673
   9.2551673  27.4272753  15.9111673   5.7311673   6.3941673  83.6291313
   5.2071673   6.9901673  83.9921313   6.1281673   6.0261673  84.3131313
   5.7121673   6.4281673  83.7841313  11.8751673  13.8351673  76.6001313
  12.5761673  13.3161673  76.5961313  11.2881673  13.3901673  76.1311313
  11.8921673  13.6921673  76.5301313   8.4021673   7.4611673  80.3051313
   8.4821673   7.4651673  79.4361313   7.8181673   6.8291673  80.4541313
   8.3271673   7.3681673  80.1991313   2.0961673  13.9861673  87.6701313
   2.2341673  14.7461673  87.2631313   2.8871673  13.6211673  87.6971313
   2.2331673  14.0451673  87.6141313   3.1911673  11.8711673  82.1751313
   3.5391673  11.0721673  82.2051313   3.8561673  12.3751673  81.9201313
   3.3411673  11.8271673  82.1421313   3.2481673  11.3201673  78.3861313
   3.5791673  10.6761673  78.8721313   3.4881673  11.1091673  77.5751313
   3.3321673  11.1941673  78.3381313   7.2361673   3.0521673  73.3531313
   6.7861673   3.7331673  73.6601313   7.3501673   2.5481673  74.0561313
   7.1871673   3.0781673  73.5021313   7.3351673  15.3931673  75.4571313
   8.0621673  15.8651673  75.5591313   7.5641673  14.5991673  75.7371313
   7.4771673  15.3461673  75.5141313   5.5031673  15.7851673  77.4471313
   5.7171673  16.3121673  78.1091313   6.2701673  15.6111673  77.0681313
   5.6481673  15.8371673  77.4891313  12.6301673   3.0251673  79.6481313
  12.2841673   3.7031673  80.0741313  11.9941673   2.4271673  79.6641313
  12.4851673   3.0371673  79.7131313   7.9421673  15.7951673  85.7521313
   8.6861673  16.2511673  85.7421313   7.8211673  15.5811673  84.9151313
   8.0341673  15.8311673  85.6271313   4.7531673   4.6671673  79.2691313
   5.0401673   4.4351673  78.4791313   5.4851673   4.7461673  79.7381313
   4.9031673   4.6441673  79.2221313   5.4751673   5.0061673  74.3901313
   5.7561673   5.7941673  74.6391313   4.6991673   5.1711673  74.0271313
   5.4021673   5.1471673  74.3731313   9.5161673  16.9801673  75.8571313
  10.1811673  16.8321673  75.3121313   9.8761673  16.8971673  76.6471313
   9.6681673  16.9461673  75.8931313   4.3341673  13.1771673  74.2061313
   4.1531673  13.7221673  74.8631313   5.1001673  13.4671673  73.9051313
   4.4201673  13.3011673  74.2591313   5.0991673   3.4491673  76.5741313
   4.5911673   2.7871673  76.3201313   5.1511673   3.9531673  75.8641313
   5.0321673   3.4261673  76.4321313   5.6481673  16.1441673  86.9541313
   6.4161673  16.0641673  86.5481313   5.0651673  16.0231673  86.3161313
   5.6751673  16.1141673  86.8001313  11.9251673  16.7471673  79.8551313
  11.4701673  17.4641673  80.0561313  11.3111673  16.1761673  79.6131313
  11.7671673  16.7691673  79.8491313   3.6971673   2.7571673  80.9871313
   3.7711673   3.3251673  80.3291313   3.8181673   3.2491673  81.6971313
   3.7251673   2.9141673  80.9951313   8.9221673  12.5921673  79.3991313
   9.6231673  12.1101673  79.5881313   8.2621673  12.0231673  79.4441313
   8.9281673  12.4371673  79.4331313   7.4891673   2.9271673  86.8751313
   7.3941673   3.2461673  87.6811313   6.8961673   2.2881673  86.8371313
   7.3871673   2.8791673  86.9891313   2.0111673   8.9511673  85.9501313
   2.0641673   9.7981673  86.1521313   1.7261673   8.5811673  86.6871313
   1.9771673   9.0211673  86.0881313   8.1881673   9.6461673  85.0801313
   7.6741673   9.2341673  85.6511313   8.0621673  10.4901673  85.2611313
   8.0941673   9.7101673  85.1911313  11.4411673  10.0851673  75.2071313
  11.5601673   9.7981673  76.0221313  12.2481673  10.1061673  74.8771313
  11.5771673  10.0461673  75.2791313   9.3361673   6.6221673  74.7921313
   9.1161673   7.3531673  74.3701313   8.8881673   6.6731673  75.5391313
   9.2371673   6.7371673  74.8401313  13.8461673   5.8611673  86.8011313
  14.0611673   5.0611673  86.5251313  12.9961673   5.9211673  86.6121313
  13.7521673   5.7521673  86.7321313   5.4681673  13.5271673  81.1001313
   4.9451673  14.1611673  80.8071313   5.7781673  13.1631673  80.3711313
   5.4361673  13.5671673  80.9491313   7.9791673   3.3291673  81.5971313
   8.3231673   3.4811673  82.3841313   7.5261673   2.5911673  81.7101313
   7.9631673   3.2421673  81.7301313   2.4551673   2.5491673  76.0541313
   2.4531673   2.4321673  75.1891313   2.2741673   3.3971673  76.1461313
   2.4281673   2.6571673  75.9401313  11.5091673  14.9761673  87.5511313
  10.8381673  15.4901673  87.7691313  11.5721673  15.0761673  86.6871313
  11.4191673  15.0671673  87.4561313   9.3001673   4.6611673  84.1511313
   8.6381673   4.9891673  84.6141313   9.4871673   5.2951673  83.5821313
   9.2301673   4.8031673  84.1351313   3.5051673  15.7251673  85.1471313
   3.2281673  15.0841673  84.6241313   3.2971673  16.4511673  84.7091313
   3.4341673  15.7381673  85.0051313   7.4931673   2.6301673  77.6621313
   7.9831673   3.3471673  77.5851313   6.7031673   2.8911673  77.3991313
   7.4491673   2.7741673  77.6121313   4.0751673   4.1001673  83.3871313
   4.5551673   4.7991673  83.5951313   4.4481673   3.4531673  83.8381313
   4.2011673   4.1081673  83.4841313   6.2641673   7.2691673  75.6611313
   6.2561673   7.9911673  75.1711313   5.6251673   7.4041673  76.2381313
   6.1691673   7.3961673  75.6741313  11.2361673  11.1391673  79.6421313
  11.5921673  10.7891673  80.3571313  11.2281673  10.4781673  79.0721313
  11.2881673  10.9891673  79.6631313   7.2811673  14.2051673  83.4861313
   6.6781673  13.9091673  82.9291313   7.8261673  14.6571673  82.9771313
   7.2721673  14.2281673  83.3281313   7.2941673  11.0561673  82.8861313
   6.4971673  11.2801673  83.1601313   7.5521673  10.4621673  83.4711313
   7.2141673  11.0011673  83.0131313   3.4781673  15.3841673  75.7361313
   4.1001673  15.5471673  76.3261313   3.5141673  16.0751673  75.2041313
   3.5751673  15.5101673  75.7451313  10.5541673   9.0541673  87.7321313
  10.6091673   9.1791673  86.8701313  11.3071673   9.3741673  88.0341313
  10.6731673   9.1191673  87.6491313   6.2851673   8.8601673  87.3321313
   6.1301673   9.4701673  87.9361313   6.8191673   8.3021673  87.7381313
   6.3411673   8.8681673  87.4811313   4.6691673   7.2601673  77.9901313
   4.7281673   7.9101673  78.5691313   4.4801673   6.5641673  78.4811313
   4.6501673   7.2531673  78.1481313   9.8951673  11.5891673  83.8591313
   9.4161673  11.8871673  83.1931313   9.5391673  10.8131673  84.0371313
   9.7721673  11.5181673  83.7871313   3.8921673   9.3071673  82.4211313
   3.0451673   9.1131673  82.5021313   4.2161673   9.1421673  83.2141313
   3.8141673   9.2541673  82.5501313  13.5871673  15.7551673  75.7991313
  14.2811673  15.2881673  75.5511313  13.0481673  15.1571673  76.1361313
  13.6101673  15.5971673  75.8121313  10.8261673   8.5311673  84.9781313
  10.8191673   7.7551673  85.3761313   9.9851673   8.7651673  84.9711313
  10.7011673   8.4511673  85.0361313  12.0821673   8.6021673  82.4151313
  11.7961673   9.0031673  83.1351313  12.9421673   8.5401673  82.5421313
  12.1671673   8.6521673  82.5401313  13.2131673  14.2351673  82.9441313
  13.5031673  14.4921673  82.1631313  13.9081673  14.3311673  83.4631313
  13.3591673  14.2871673  82.9051313   9.8181673  12.8381673  74.9261313
  10.1521673  12.0321673  74.9611313   9.0631673  12.7661673  75.3561313
   9.7561673  12.7081673  74.9951313  10.3001673   4.6721673  80.5851313
   9.5551673   4.3491673  80.9031313  10.3021673   5.4981673  80.8651313
  10.1901673   4.7461673  80.6731313   7.1921673  10.7131673  74.3291313
   7.8761673  10.1991673  74.1601313   6.7751673  10.7591673  73.5641313
   7.2311673  10.6441673  74.1911313   4.3901673   8.2861673  85.1241313
   4.8661673   8.6601673  85.7521313   3.5671673   8.4201673  85.3831313
   4.3391673   8.3611673  85.2551313   3.6541673  15.6791673  80.3521313
   4.2001673  16.3581673  80.4061313   3.3041673  15.7611673  79.5571313
   3.6831673  15.7921673  80.2421313  11.9181673   5.2371673  74.5731313
  12.2961673   5.9141673  74.1731313  11.0761673   5.4611673  74.6041313
  11.8491673   5.3701673  74.5181313   3.4311673   8.6831673  73.6561313
   2.6261673   8.5061673  73.3711313   3.3981673   9.5341673  73.8481313
   3.3071673   8.7821673  73.6431313   7.0651673   5.3891673  85.6961313
   7.3671673   5.8091673  86.3991313   7.1011673   4.5491673  85.9281313
   7.1151673   5.3271673  85.8341313   9.6131673   4.8361673  77.9481313
   9.8201673   4.6351673  78.7721313  10.3691673   5.1041673  77.6061313
   9.7551673   4.8461673  78.0191313  11.0781673   8.8631673  77.8021313
  11.5541673   8.1341673  77.7541313  10.2571673   8.5771673  77.7261313
  11.0271673   8.7131673  77.7831313   7.2941673  10.0301673  80.1571313
   7.3701673  10.3711673  80.9561313   7.4631673   9.1831673  80.2781313
   7.3301673   9.9551673  80.2931313   4.8161673   9.3041673  79.7221313
   4.5181673   8.9891673  80.4791313   5.5111673   9.7771673  79.9571313
   4.8751673   9.3271673  79.8691313   8.7451673  16.2601673  82.2521313
   8.2941673  16.9031673  82.6311313   9.4531673  16.1811673  82.7571313
   8.7831673  16.3431673  82.3831313   5.4461673  11.3501673  85.1821313
   4.7521673  11.7521673  85.5251313   6.1231673  11.7831673  85.5211313
   5.4431673  11.4731673  85.2831313  11.8481673   5.9761673  77.2441313
  11.9511673   5.9181673  76.3801313  12.5891673   5.6441673  77.5621313
  11.9731673   5.9191673  77.1631313   5.7681673  12.9411673  78.3511313
   5.5631673  13.7741673  78.1921313   4.9931673  12.5591673  78.4731313
   5.6231673  13.0081673  78.3461313  10.9501673   6.1221673  86.6001313
  10.9481673   5.2591673  86.7241313  11.0171673   6.4461673  87.4071313
  10.9601673   6.0421673  86.7371313   9.7251673   6.9081673  82.5271313
  10.3911673   7.4491673  82.6871313   9.3801673   7.2191673  81.7881313
   9.7721673   7.0341673  82.4421313  10.0381673  14.9741673  78.3341313
   9.8641673  14.3201673  78.8841313  10.7511673  14.7031673  77.9111313
  10.1181673  14.8371673  78.3531313   7.7131673  12.4271673  86.0251313
   7.9191673  12.7281673  86.8171313   7.6521673  13.1491673  85.5401313
   7.7341673  12.5781673  86.0701313  12.5251673  11.0661673  85.4831313
  12.4931673  10.2041673  85.3481313  11.8321673  11.3681673  85.0491313
  12.4181673  10.9831673  85.3991313  10.6301673  14.3261673  84.2801313
  11.1571673  14.2431673  83.5891313  10.2391673  13.5481673  84.3341313
  10.6501673  14.1991673  84.1861313   6.5031673   5.5781673  80.9811313
   7.0541673   4.9711673  81.2811313   6.0781673   5.8411673  81.6961313
   6.5221673   5.5271673  81.1301313   8.4731673   7.4091673  77.5431313
   8.5411673   6.5591673  77.7241313   7.6501673   7.4951673  77.2651313
   8.3611673   7.2961673  77.5291313   2.3921673   8.3001673  76.4811313
   2.4921673   8.4391673  75.6261313   3.2101673   8.2401673  76.7771313
   2.5271673   8.3111673  76.3981313  11.5521673  16.3641673  73.9611313
  12.1891673  16.2301673  74.5421313  11.2111673  15.5701673  73.8441313
  11.5961673  16.2271673  74.0291313   7.6271673  12.6291673  76.2831313
   7.3761673  12.5011673  77.1091313   7.3101673  11.9341673  75.8621313
   7.5431673  12.5081673  76.3431313  12.2711673   4.2871673  84.4031313
  11.4381673   4.5371673  84.3311313  12.2151673   3.4471673  84.6321313
  12.1401673   4.2001673  84.4261313   4.5131673  10.8371673  75.7131313
   5.2301673  10.4901673  75.3571313   4.4791673  11.6371673  75.3651313
   4.6141673  10.9041673  75.6091313   5.7311673   6.3941673  64.6228903
   5.2071673   6.9901673  64.9858903   6.1281673   6.0261673  65.3068903
   5.7121673   6.4281673  64.7778903  11.8751673  13.8351673  57.5938903
  12.5761673  13.3161673  57.5898903  11.2881673  13.3901673  57.1248903
  11.8921673  13.6921673  57.5238903   8.4021673   7.4611673  61.2988903
   8.4821673   7.4651673  60.4298903   7.8181673   6.8291673  61.4478903
   8.3271673   7.3681673  61.1928903   2.0961673  13.9861673  68.6638903
   2.2341673  14.7461673  68.2568903   2.8871673  13.6211673  68.6908903
   2.2331673  14.0451673  68.6078903   3.1911673  11.8711673  63.1688903
   3.5391673  11.0721673  63.1988903   3.8561673  12.3751673  62.9138903
   3.3411673  11.8271673  63.1358903   3.2481673  11.3201673  59.3798903
   3.5791673  10.6761673  59.8658903   3.4881673  11.1091673  58.5688903
   3.3321673  11.1941673  59.3318903   5.2161673   5.4511673  70.7188903
   4.3681673   5.3521673  70.5408903   5.2451673   6.1961673  71.1728903
   5.0951673   5.5471673  70.7598903   7.2361673   3.0521673  54.3468903
   6.7861673   3.7331673  54.6538903   7.3501673   2.5481673  55.0498903
   7.1871673   3.0781673  54.4958903   7.3351673  15.3931673  56.4508903
   8.0621673  15.8651673  56.5528903   7.5641673  14.5991673  56.7308903
   7.4771673  15.3461673  56.5078903   5.5031673  15.7851673  58.4408903
   5.7171673  16.3121673  59.1028903   6.2701673  15.6111673  58.0618903
   5.6481673  15.8371673  58.4828903   1.7771673   2.5011673  73.3378903
   1.8941673   2.0471673  72.6018903   2.0651673   3.2991673  73.1348903
   1.8371673   2.5521673  73.1988903  12.6301673   3.0251673  60.6418903
  12.2841673   3.7031673  61.0678903  11.9941673   2.4271673  60.6578903
  12.4851673   3.0371673  60.7068903   7.9421673  15.7951673  66.7458903
   8.6861673  16.2511673  66.7358903   7.8211673  15.5811673  65.9088903
   8.0341673  15.8311673  66.6208903   4.7531673   4.6671673  60.2628903
   5.0401673   4.4351673  59.4728903   5.4851673   4.7461673  60.7318903
   4.9031673   4.6441673  60.2158903   5.4751673   5.0061673  55.3838903
   5.7561673   5.7941673  55.6328903   4.6991673   5.1711673  55.0208903
   5.4021673   5.1471673  55.3668903   9.5161673  16.9801673  56.8508903
  10.1811673  16.8321673  56.3058903   9.8761673  16.8971673  57.6408903
   9.6681673  16.9461673  56.8868903   7.1961673  12.9801673  70.4498903
   7.1621673  13.3621673  71.2338903   8.0501673  12.9381673  70.2788903
   7.3171673  13.0301673  70.5408903   4.3341673  13.1771673  55.1998903
   4.1531673  13.7221673  55.8568903   5.1001673  13.4671673  54.8988903
   4.4201673  13.3011673  55.2528903   5.0991673   3.4491673  57.5678903
   4.5911673   2.7871673  57.3138903   5.1511673   3.9531673  56.8578903
   5.0321673   3.4261673  57.4258903   5.6481673  16.1441673  67.9478903
   6.4161673  16.0641673  67.5418903   5.0651673  16.0231673  67.3098903
   5.6751673  16.1141673  67.7938903  11.9251673  16.7471673  60.8488903
  11.4701673  17.4641673  61.0498903  11.3111673  16.1761673  60.6068903
  11.7671673  16.7691673  60.8428903   3.6971673   2.7571673  61.9808903
   3.7711673   3.3251673  61.3228903   3.8181673   3.2491673  62.6908903
   3.7251673   2.9141673  61.9888903   8.9221673  12.5921673  60.3928903
   9.6231673  12.1101673  60.5818903   8.2621673  12.0231673  60.4378903
   8.9281673  12.4371673  60.4268903   7.4891673   2.9271673  67.8688903
   7.3941673   3.2461673  68.6748903   6.8961673   2.2881673  67.8308903
   7.3871673   2.8791673  67.9828903   2.0111673   8.9511673  66.9438903
   2.0641673   9.7981673  67.1458903   1.7261673   8.5811673  67.6808903
   1.9771673   9.0211673  67.0818903   8.1881673   9.6461673  66.0738903
   7.6741673   9.2341673  66.6448903   8.0621673  10.4901673  66.2548903
   8.0941673   9.7101673  66.1848903  11.2091673   3.1071673  69.0128903
  11.9811673   2.8821673  69.3498903  10.7341673   3.3241673  69.7128903
  11.2531673   3.1061673  69.1658903  11.4411673  10.0851673  56.2008903
  11.5601673   9.7981673  57.0158903  12.2481673  10.1061673  55.8708903
  11.5771673  10.0461673  56.2728903  13.6751673  14.5941673  70.4548903
  12.9931673  14.9041673  70.0078903  13.3061673  14.1361673  71.0998903
  13.5191673  14.5721673  70.4838903   9.3361673   6.6221673  55.7858903
   9.1161673   7.3531673  55.3638903   8.8881673   6.6731673  56.5328903
   9.2371673   6.7371673  55.8338903   2.7481673   5.1771673  73.1828903
   2.2641673   5.7541673  73.6248903   2.7201673   5.4721673  72.3618903
   2.6721673   5.3061673  73.1268903  13.8461673   5.8611673  67.7948903
  14.0611673   5.0611673  67.5188903  12.9961673   5.9211673  67.6058903
  13.7521673   5.7521673  67.7258903   5.4681673  13.5271673  62.0938903
   4.9451673  14.1611673  61.8008903   5.7781673  13.1631673  61.3648903
   5.4361673  13.5671673  61.9428903   7.9791673   3.3291673  62.5908903
   8.3231673   3.4811673  63.3778903   7.5261673   2.5911673  62.7038903
   7.9631673   3.2421673  62.7238903   2.4551673   2.5491673  57.0478903
   2.4531673   2.4321673  56.1828903   2.2741673   3.3971673  57.1398903
   2.4281673   2.6571673  56.9338903  11.5091673  14.9761673  68.5448903
  10.8381673  15.4901673  68.7628903  11.5721673  15.0761673  67.6808903
  11.4191673  15.0671673  68.4498903   9.3001673   4.6611673  65.1448903
   8.6381673   4.9891673  65.6078903   9.4871673   5.2951673  64.5758903
   9.2301673   4.8031673  65.1288903   3.5051673  15.7251673  66.1408903
   3.2281673  15.0841673  65.6178903   3.2971673  16.4511673  65.7028903
   3.4341673  15.7381673  65.9988903   7.4931673   2.6301673  58.6558903
   7.9831673   3.3471673  58.5788903   6.7031673   2.8911673  58.3928903
   7.4491673   2.7741673  58.6058903   8.8071673  10.5081673  70.5658903
   9.2911673  11.2261673  70.6638903   9.2011673  10.0811673  69.9148903
   8.9371673  10.5511673  70.4838903   3.1031673  13.3531673  71.7428903
   3.4571673  13.1751673  72.5198903   2.6671673  12.6241673  71.5438903
   3.0911673  13.2191673  71.8288903   4.0751673   4.1001673  64.3808903
   4.5551673   4.7991673  64.5888903   4.4481673   3.4531673  64.8318903
   4.2011673   4.1081673  64.4778903   6.2641673   7.2691673  56.6548903
   6.2561673   7.9911673  56.1648903   5.6251673   7.4041673  57.2318903
   6.1691673   7.3961673  56.6678903  11.2361673  11.1391673  60.6358903
  11.5921673  10.7891673  61.3508903  11.2281673  10.4781673  60.0658903
  11.2881673  10.9891673  60.6568903   7.2811673  14.2051673  64.4798903
   6.6781673  13.9091673  63.9228903   7.8261673  14.6571673  63.9708903
   7.2721673  14.2281673  64.3218903   7.2941673  11.0561673  63.8798903
   6.4971673  11.2801673  64.1538903   7.5521673  10.4621673  64.4648903
   7.2141673  11.0011673  64.0068903   3.4781673  15.3841673  56.7298903
   4.1001673  15.5471673  57.3198903   3.5141673  16.0751673  56.1978903
   3.5751673  15.5101673  56.7388903  10.5541673   9.0541673  68.7258903
  10.6091673   9.1791673  67.8638903  11.3071673   9.3741673  69.0278903
  10.6731673   9.1191673  68.6428903   6.7451673  14.4031673  73.0028903
   6.9091673  14.6861673  73.8118903   7.0081673  15.0641673  72.4978903
   6.8081673  14.5431673  73.0478903   6.2851673   8.8601673  68.3258903
   6.1301673   9.4701673  68.9298903   6.8191673   8.3021673  68.7318903
   6.3411673   8.8681673  68.4748903   4.6691673   7.2601673  58.9838903
   4.7281673   7.9101673  59.5628903   4.4801673   6.5641673  59.4748903
   4.6501673   7.2531673  59.1418903   9.8951673  11.5891673  64.8528903
   9.4161673  11.8871673  64.1868903   9.5391673  10.8131673  65.0308903
   9.7721673  11.5181673  64.7808903   3.8921673   9.3071673  63.4148903
   3.0451673   9.1131673  63.4958903   4.2161673   9.1421673  64.2078903
   3.8141673   9.2541673  63.5438903  13.5871673  15.7551673  56.7928903
  14.2811673  15.2881673  56.5448903  13.0481673  15.1571673  57.1298903
  13.6101673  15.5971673  56.8058903  10.8261673   8.5311673  65.9718903
  10.8191673   7.7551673  66.3698903   9.9851673   8.7651673  65.9648903
  10.7011673   8.4511673  66.0298903  12.0821673   8.6021673  63.4088903
  11.7961673   9.0031673  64.1288903  12.9421673   8.5401673  63.5358903
  12.1671673   8.6521673  63.5338903   9.7441673   2.5261673  71.9488903
   9.2191673   2.9851673  72.4728903   9.3831673   1.7311673  71.9428903
   9.6131673   2.4761673  72.0248903  13.2131673  14.2351673  63.9378903
  13.5031673  14.4921673  63.1568903  13.9081673  14.3311673  64.4568903
  13.3591673  14.2871673  63.8988903   8.2361673   6.0951673  72.0248903
   8.3091673   6.1991673  72.8878903   7.6021673   6.6531673  71.8038903
   8.1531673   6.1931673  72.1198903  10.5041673   6.4141673  70.3898903
  10.8231673   7.2001673  70.5928903  10.1341673   6.1441673  71.1328903
  10.4971673   6.4901673  70.5298903   9.8181673  12.8381673  55.9198903
  10.1521673  12.0321673  55.9548903   9.0631673  12.7661673  56.3498903
   9.7561673  12.7081673  55.9888903  10.3001673   4.6721673  61.5788903
   9.5551673   4.3491673  61.8968903  10.3021673   5.4981673  61.8588903
  10.1901673   4.7461673  61.6668903  13.2021673   6.9561673  73.1248903
  13.1501673   6.6151673  72.3238903  13.9391673   7.4231673  73.1028903
  13.3031673   6.9751673  73.0028903  12.7401673  10.6321673  69.3308903
  13.3681673  10.0831673  69.0748903  12.6791673  11.1971673  68.6688903
  12.8241673  10.6351673  69.1948903   7.1921673  10.7131673  55.3228903
   7.8761673  10.1991673  55.1538903   6.7751673  10.7591673  54.5578903
   7.2311673  10.6441673  55.1848903   4.3901673   8.2861673  66.1178903
   4.8661673   8.6601673  66.7458903   3.5671673   8.4201673  66.3768903
   4.3391673   8.3611673  66.2488903   3.6541673  15.6791673  61.3458903
   4.2001673  16.3581673  61.3998903   3.3041673  15.7611673  60.5508903
   3.6831673  15.7921673  61.2358903   6.1461673  10.5411673  71.7238903
   6.9031673  10.8271673  71.3978903   5.5991673  10.5931673  71.0458903
   6.1771673  10.5911673  71.5748903  10.0551673  13.0911673  70.2278903
  10.4011673  13.3611673  70.9818903  10.3491673  13.6731673  69.6478903
  10.1501673  13.2171673  70.2538903  11.9181673   5.2371673  55.5668903
  12.2961673   5.9141673  55.1668903  11.0761673   5.4611673  55.5978903
  11.8491673   5.3701673  55.5118903   3.4311673   8.6831673  54.6498903
   2.6261673   8.5061673  54.3648903   3.3981673   9.5341673  54.8418903
   3.3071673   8.7821673  54.6368903   7.3771673   3.8521673  70.3918903
   6.7291673   4.3221673  70.7398903   7.9421673   3.7631673  71.0508903
   7.3651673   3.9081673  70.5408903   7.0651673   5.3891673  66.6898903
   7.3671673   5.8091673  67.3928903   7.1011673   4.5491673  66.9218903
   7.1151673   5.3271673  66.8278903   4.4901673  15.5561673  70.6148903
   4.9681673  14.9561673  70.1988903   4.1391673  15.1131673  71.2798903
   4.5091673  15.4021673  70.6518903   9.6131673   4.8361673  58.9418903
   9.8201673   4.6351673  59.7658903  10.3691673   5.1041673  58.5998903
   9.7551673   4.8461673  59.0128903  11.0781673   8.8631673  58.7958903
  11.5541673   8.1341673  58.7478903  10.2571673   8.5771673  58.7198903
  11.0271673   8.7131673  58.7768903   4.5491673  10.7751673  69.6348903
   3.7541673  10.7111673  69.9858903   4.6201673  11.6221673  69.4398903
   4.4421673  10.8901673  69.6578903   7.2941673  10.0301673  61.1508903
   7.3701673  10.3711673  61.9498903   7.4631673   9.1831673  61.2718903
   7.3301673   9.9551673  61.2868903   4.8161673   9.3041673  60.7158903
   4.5181673   8.9891673  61.4728903   5.5111673   9.7771673  60.9508903
   4.8751673   9.3271673  60.8628903   5.0381673  13.4221673  68.7428903
   5.7251673  13.3081673  69.2678903   5.1721673  14.2131673  68.3988903
   5.1591673  13.5221673  68.7698903  13.2141673   6.0311673  70.5538903
  12.3591673   5.9091673  70.6798903  13.3671673   5.6361673  69.7908903
  13.1101673   5.9541673  70.4598903   7.7271673   6.6961673  69.1298903
   7.4721673   5.9771673  69.5518903   8.5481673   6.8121673  69.3998903
   7.8111673   6.6071673  69.2318903   5.6611673   7.8861673  72.3168903
   5.9841673   8.5721673  71.8848903   4.9571673   8.2091673  72.7188903
   5.6041673   8.0351673  72.3118903   8.7451673  16.2601673  63.2458903
   8.2941673  16.9031673  63.6248903   9.4531673  16.1811673  63.7508903
   8.7831673  16.3431673  63.3768903   5.4461673  11.3501673  66.1758903
   4.7521673  11.7521673  66.5188903   6.1231673  11.7831673  66.5148903
   5.4431673  11.4731673  66.2768903  10.8231673  13.9431673  72.7558903
  11.5991673  13.5531673  72.8388903  10.3541673  13.6071673  73.4108903
  10.8681673  13.8361673  72.8648903  11.8481673   5.9761673  58.2378903
  11.9511673   5.9181673  57.3738903  12.5891673   5.6441673  58.5558903
  11.9731673   5.9191673  58.1568903   5.7681673  12.9411673  59.3448903
   5.5631673  13.7741673  59.1858903   4.9931673  12.5591673  59.4668903
   5.6231673  13.0081673  59.3398903  10.9501673   6.1221673  67.5938903
  10.9481673   5.2591673  67.7178903  11.0171673   6.4461673  68.4008903
  10.9601673   6.0421673  67.7308903   9.7251673   6.9081673  63.5208903
  10.3911673   7.4491673  63.6808903   9.3801673   7.2191673  62.7818903
   9.7721673   7.0341673  63.4358903  10.0381673  14.9741673  59.3278903
   9.8641673  14.3201673  59.8778903  10.7511673  14.7031673  58.9048903
  10.1181673  14.8371673  59.3468903   7.7131673  12.4271673  67.0188903
   7.9191673  12.7281673  67.8108903   7.6521673  13.1491673  66.5338903
   7.7341673  12.5781673  67.0638903   7.2471673  16.6411673  71.2648903
   6.4941673  16.6231673  70.8238903   7.4151673  17.4931673  71.3488903
   7.1611673  16.7641673  71.2118903   2.4841673   5.9081673  70.4348903
   2.1621673   5.3321673  69.8648903   2.1251673   6.6631673  70.1888903
   2.3841673   5.9341673  70.3148903  12.5251673  11.0661673  66.4768903
  12.4931673  10.2041673  66.3418903  11.8321673  11.3681673  66.0428903
  12.4181673  10.9831673  66.3928903  10.6301673  14.3261673  65.2738903
  11.1571673  14.2431673  64.5828903  10.2391673  13.5481673  65.3278903
  10.6501673  14.1991673  65.1798903   6.5031673   5.5781673  61.9748903
   7.0541673   4.9711673  62.2748903   6.0781673   5.8411673  62.6898903
   6.5221673   5.5271673  62.1238903   8.4731673   7.4091673  58.5368903
   8.5411673   6.5591673  58.7178903   7.6501673   7.4951673  58.2588903
   8.3611673   7.2961673  58.5228903   2.3921673   8.3001673  57.4748903
   2.4921673   8.4391673  56.6198903   3.2101673   8.2401673  57.7708903
   2.5271673   8.3111673  57.3918903  11.5521673  16.3641673  54.9548903
  12.1891673  16.2301673  55.5358903  11.2111673  15.5701673  54.8378903
  11.5961673  16.2271673  55.0228903  11.7471673   8.7821673  71.6878903
  12.3811673   8.6121673  72.2618903  12.1641673   9.1851673  71.0358903
  11.9021673   8.8171673  71.6768903   7.6271673  12.6291673  57.2768903
   7.3761673  12.5011673  58.1028903   7.3101673  11.9341673  56.8558903
   7.5431673  12.5081673  57.3368903  12.3721673   3.3461673  72.4258903
  12.1761673   3.9901673  72.9808903  11.6501673   2.8561673  72.4178903
  12.2371673   3.3691673  72.5068903  12.2711673   4.2871673  65.3968903
  11.4381673   4.5371673  65.3248903  12.2151673   3.4471673  65.6258903
  12.1401673   4.2001673  65.4198903   9.1581673   8.8931673  73.0428903
  10.0291673   8.8571673  73.0068903   8.9391673   9.3131673  72.3108903
   9.2551673   8.9491673  72.9298903   4.5131673  10.8371673  56.7068903
   5.2301673  10.4901673  56.3508903   4.4791673  11.6371673  56.3588903
   4.6141673  10.9041673  56.6028903   5.7311673   6.3941673  45.6166493
   5.2071673   6.9901673  45.9796493   6.1281673   6.0261673  46.3006493
   5.7121673   6.4281673  45.7716493  11.8751673  13.8351673  38.5876493
  12.5761673  13.3161673  38.5836493  11.2881673  13.3901673  38.1186493
  11.8921673  13.6921673  38.5176493   8.4021673   7.4611673  42.2926493
   8.4821673   7.4651673  41.4236493   7.8181673   6.8291673  42.4416493
   8.3271673   7.3681673  42.1866493   2.0961673  13.9861673  49.6576493
   2.2341673  14.7461673  49.2506493   2.8871673  13.6211673  49.6846493
   2.2331673  14.0451673  49.6016493   3.1911673  11.8711673  44.1626493
   3.5391673  11.0721673  44.1926493   3.8561673  12.3751673  43.9076493
   3.3411673  11.8271673  44.1296493   3.2481673  11.3201673  40.3736493
   3.5791673  10.6761673  40.8596493   3.4881673  11.1091673  39.5626493
   3.3321673  11.1941673  40.3256493   5.2161673   5.4511673  51.7126493
   4.3681673   5.3521673  51.5346493   5.2451673   6.1961673  52.1666493
   5.0951673   5.5471673  51.7536493   7.2361673   3.0521673  35.3406493
   6.7861673   3.7331673  35.6476493   7.3501673   2.5481673  36.0436493
   7.1871673   3.0781673  35.4896493   7.3351673  15.3931673  37.4446493
   8.0621673  15.8651673  37.5466493   7.5641673  14.5991673  37.7246493
   7.4771673  15.3461673  37.5016493   5.5031673  15.7851673  39.4346493
   5.7171673  16.3121673  40.0966493   6.2701673  15.6111673  39.0556493
   5.6481673  15.8371673  39.4766493   1.7771673   2.5011673  54.3316493
   1.8941673   2.0471673  53.5956493   2.0651673   3.2991673  54.1286493
   1.8371673   2.5521673  54.1926493  12.6301673   3.0251673  41.6356493
  12.2841673   3.7031673  42.0616493  11.9941673   2.4271673  41.6516493
  12.4851673   3.0371673  41.7006493   7.9421673  15.7951673  47.7396493
   8.6861673  16.2511673  47.7296493   7.8211673  15.5811673  46.9026493
   8.0341673  15.8311673  47.6146493   4.7531673   4.6671673  41.2566493
   5.0401673   4.4351673  40.4666493   5.4851673   4.7461673  41.7256493
   4.9031673   4.6441673  41.2096493   5.4751673   5.0061673  36.3776493
   5.7561673   5.7941673  36.6266493   4.6991673   5.1711673  36.0146493
   5.4021673   5.1471673  36.3606493   9.5161673  16.9801673  37.8446493
  10.1811673  16.8321673  37.2996493   9.8761673  16.8971673  38.6346493
   9.6681673  16.9461673  37.8806493   7.1961673  12.9801673  51.4436493
   7.1621673  13.3621673  52.2276493   8.0501673  12.9381673  51.2726493
   7.3171673  13.0301673  51.5346493   4.3341673  13.1771673  36.1936493
   4.1531673  13.7221673  36.8506493   5.1001673  13.4671673  35.8926493
   4.4201673  13.3011673  36.2466493   5.0991673   3.4491673  38.5616493
   4.5911673   2.7871673  38.3076493   5.1511673   3.9531673  37.8516493
   5.0321673   3.4261673  38.4196493   5.6481673  16.1441673  48.9416493
   6.4161673  16.0641673  48.5356493   5.0651673  16.0231673  48.3036493
   5.6751673  16.1141673  48.7876493  11.9251673  16.7471673  41.8426493
  11.4701673  17.4641673  42.0436493  11.3111673  16.1761673  41.6006493
  11.7671673  16.7691673  41.8366493   3.6971673   2.7571673  42.9746493
   3.7711673   3.3251673  42.3166493   3.8181673   3.2491673  43.6846493
   3.7251673   2.9141673  42.9826493   8.9221673  12.5921673  41.3866493
   9.6231673  12.1101673  41.5756493   8.2621673  12.0231673  41.4316493
   8.9281673  12.4371673  41.4206493   7.4891673   2.9271673  48.8626493
   7.3941673   3.2461673  49.6686493   6.8961673   2.2881673  48.8246493
   7.3871673   2.8791673  48.9766493   2.0111673   8.9511673  47.9376493
   2.0641673   9.7981673  48.1396493   1.7261673   8.5811673  48.6746493
   1.9771673   9.0211673  48.0756493   8.1881673   9.6461673  47.0676493
   7.6741673   9.2341673  47.6386493   8.0621673  10.4901673  47.2486493
   8.0941673   9.7101673  47.1786493  11.2091673   3.1071673  50.0066493
  11.9811673   2.8821673  50.3436493  10.7341673   3.3241673  50.7066493
  11.2531673   3.1061673  50.1596493  11.4411673  10.0851673  37.1946493
  11.5601673   9.7981673  38.0096493  12.2481673  10.1061673  36.8646493
  11.5771673  10.0461673  37.2666493  13.6751673  14.5941673  51.4486493
  12.9931673  14.9041673  51.0016493  13.3061673  14.1361673  52.0936493
  13.5191673  14.5721673  51.4776493   9.3361673   6.6221673  36.7796493
   9.1161673   7.3531673  36.3576493   8.8881673   6.6731673  37.5266493
   9.2371673   6.7371673  36.8276493   2.7481673   5.1771673  54.1766493
   2.2641673   5.7541673  54.6186493   2.7201673   5.4721673  53.3556493
   2.6721673   5.3061673  54.1206493  13.8461673   5.8611673  48.7886493
  14.0611673   5.0611673  48.5126493  12.9961673   5.9211673  48.5996493
  13.7521673   5.7521673  48.7196493   5.4681673  13.5271673  43.0876493
   4.9451673  14.1611673  42.7946493   5.7781673  13.1631673  42.3586493
   5.4361673  13.5671673  42.9366493   7.9791673   3.3291673  43.5846493
   8.3231673   3.4811673  44.3716493   7.5261673   2.5911673  43.6976493
   7.9631673   3.2421673  43.7176493   2.4551673   2.5491673  38.0416493
   2.4531673   2.4321673  37.1766493   2.2741673   3.3971673  38.1336493
   2.4281673   2.6571673  37.9276493  11.5091673  14.9761673  49.5386493
  10.8381673  15.4901673  49.7566493  11.5721673  15.0761673  48.6746493
  11.4191673  15.0671673  49.4436493   9.3001673   4.6611673  46.1386493
   8.6381673   4.9891673  46.6016493   9.4871673   5.2951673  45.5696493
   9.2301673   4.8031673  46.1226493   3.5051673  15.7251673  47.1346493
   3.2281673  15.0841673  46.6116493   3.2971673  16.4511673  46.6966493
   3.4341673  15.7381673  46.9926493   7.4931673   2.6301673  39.6496493
   7.9831673   3.3471673  39.5726493   6.7031673   2.8911673  39.3866493
   7.4491673   2.7741673  39.5996493   8.8071673  10.5081673  51.5596493
   9.2911673  11.2261673  51.6576493   9.2011673  10.0811673  50.9086493
   8.9371673  10.5511673  51.4776493   3.1031673  13.3531673  52.7366493
   3.4571673  13.1751673  53.5136493   2.6671673  12.6241673  52.5376493
   3.0911673  13.2191673  52.8226493   4.0751673   4.1001673  45.3746493
   4.5551673   4.7991673  45.5826493   4.4481673   3.4531673  45.8256493
   4.2011673   4.1081673  45.4716493   6.2641673   7.2691673  37.6486493
   6.2561673   7.9911673  37.1586493   5.6251673   7.4041673  38.2256493
   6.1691673   7.3961673  37.6616493  11.2361673  11.1391673  41.6296493
  11.5921673  10.7891673  42.3446493  11.2281673  10.4781673  41.0596493
  11.2881673  10.9891673  41.6506493   7.2811673  14.2051673  45.4736493
   6.6781673  13.9091673  44.9166493   7.8261673  14.6571673  44.9646493
   7.2721673  14.2281673  45.3156493   7.2941673  11.0561673  44.8736493
   6.4971673  11.2801673  45.1476493   7.5521673  10.4621673  45.4586493
   7.2141673  11.0011673  45.0006493   3.4781673  15.3841673  37.7236493
   4.1001673  15.5471673  38.3136493   3.5141673  16.0751673  37.1916493
   3.5751673  15.5101673  37.7326493  10.5541673   9.0541673  49.7196493
  10.6091673   9.1791673  48.8576493  11.3071673   9.3741673  50.0216493
  10.6731673   9.1191673  49.6366493   6.7451673  14.4031673  53.9966493
   6.9091673  14.6861673  54.8056493   7.0081673  15.0641673  53.4916493
   6.8081673  14.5431673  54.0416493   6.2851673   8.8601673  49.3196493
   6.1301673   9.4701673  49.9236493   6.8191673   8.3021673  49.7256493
   6.3411673   8.8681673  49.4686493   4.6691673   7.2601673  39.9776493
   4.7281673   7.9101673  40.5566493   4.4801673   6.5641673  40.4686493
   4.6501673   7.2531673  40.1356493   9.8951673  11.5891673  45.8466493
   9.4161673  11.8871673  45.1806493   9.5391673  10.8131673  46.0246493
   9.7721673  11.5181673  45.7746493   3.8921673   9.3071673  44.4086493
   3.0451673   9.1131673  44.4896493   4.2161673   9.1421673  45.2016493
   3.8141673   9.2541673  44.5376493  13.5871673  15.7551673  37.7866493
  14.2811673  15.2881673  37.5386493  13.0481673  15.1571673  38.1236493
  13.6101673  15.5971673  37.7996493  10.8261673   8.5311673  46.9656493
  10.8191673   7.7551673  47.3636493   9.9851673   8.7651673  46.9586493
  10.7011673   8.4511673  47.0236493  12.0821673   8.6021673  44.4026493
  11.7961673   9.0031673  45.1226493  12.9421673   8.5401673  44.5296493
  12.1671673   8.6521673  44.5276493   9.7441673   2.5261673  52.9426493
   9.2191673   2.9851673  53.4666493   9.3831673   1.7311673  52.9366493
   9.6131673   2.4761673  53.0186493  13.2131673  14.2351673  44.9316493
  13.5031673  14.4921673  44.1506493  13.9081673  14.3311673  45.4506493
  13.3591673  14.2871673  44.8926493   8.2361673   6.0951673  53.0186493
   8.3091673   6.1991673  53.8816493   7.6021673   6.6531673  52.7976493
   8.1531673   6.1931673  53.1136493  10.5041673   6.4141673  51.3836493
  10.8231673   7.2001673  51.5866493  10.1341673   6.1441673  52.1266493
  10.4971673   6.4901673  51.5236493   9.8181673  12.8381673  36.9136493
  10.1521673  12.0321673  36.9486493   9.0631673  12.7661673  37.3436493
   9.7561673  12.7081673  36.9826493  10.3001673   4.6721673  42.5726493
   9.5551673   4.3491673  42.8906493  10.3021673   5.4981673  42.8526493
  10.1901673   4.7461673  42.6606493  13.2021673   6.9561673  54.1186493
  13.1501673   6.6151673  53.3176493  13.9391673   7.4231673  54.0966493
  13.3031673   6.9751673  53.9966493  12.7401673  10.6321673  50.3246493
  13.3681673  10.0831673  50.0686493  12.6791673  11.1971673  49.6626493
  12.8241673  10.6351673  50.1886493   7.1921673  10.7131673  36.3166493
   7.8761673  10.1991673  36.1476493   6.7751673  10.7591673  35.5516493
   7.2311673  10.6441673  36.1786493   4.3901673   8.2861673  47.1116493
   4.8661673   8.6601673  47.7396493   3.5671673   8.4201673  47.3706493
   4.3391673   8.3611673  47.2426493   3.6541673  15.6791673  42.3396493
   4.2001673  16.3581673  42.3936493   3.3041673  15.7611673  41.5446493
   3.6831673  15.7921673  42.2296493   6.1461673  10.5411673  52.7176493
   6.9031673  10.8271673  52.3916493   5.5991673  10.5931673  52.0396493
   6.1771673  10.5911673  52.5686493  10.0551673  13.0911673  51.2216493
  10.4011673  13.3611673  51.9756493  10.3491673  13.6731673  50.6416493
  10.1501673  13.2171673  51.2476493  11.9181673   5.2371673  36.5606493
  12.2961673   5.9141673  36.1606493  11.0761673   5.4611673  36.5916493
  11.8491673   5.3701673  36.5056493   3.4311673   8.6831673  35.6436493
   2.6261673   8.5061673  35.3586493   3.3981673   9.5341673  35.8356493
   3.3071673   8.7821673  35.6306493   7.3771673   3.8521673  51.3856493
   6.7291673   4.3221673  51.7336493   7.9421673   3.7631673  52.0446493
   7.3651673   3.9081673  51.5346493   7.0651673   5.3891673  47.6836493
   7.3671673   5.8091673  48.3866493   7.1011673   4.5491673  47.9156493
   7.1151673   5.3271673  47.8216493   4.4901673  15.5561673  51.6086493
   4.9681673  14.9561673  51.1926493   4.1391673  15.1131673  52.2736493
   4.5091673  15.4021673  51.6456493   9.6131673   4.8361673  39.9356493
   9.8201673   4.6351673  40.7596493  10.3691673   5.1041673  39.5936493
   9.7551673   4.8461673  40.0066493  11.0781673   8.8631673  39.7896493
  11.5541673   8.1341673  39.7416493  10.2571673   8.5771673  39.7136493
  11.0271673   8.7131673  39.7706493   4.5491673  10.7751673  50.6286493
   3.7541673  10.7111673  50.9796493   4.6201673  11.6221673  50.4336493
   4.4421673  10.8901673  50.6516493   7.2941673  10.0301673  42.1446493
   7.3701673  10.3711673  42.9436493   7.4631673   9.1831673  42.2656493
   7.3301673   9.9551673  42.2806493   4.8161673   9.3041673  41.7096493
   4.5181673   8.9891673  42.4666493   5.5111673   9.7771673  41.9446493
   4.8751673   9.3271673  41.8566493   5.0381673  13.4221673  49.7366493
   5.7251673  13.3081673  50.2616493   5.1721673  14.2131673  49.3926493
   5.1591673  13.5221673  49.7636493  13.2141673   6.0311673  51.5476493
  12.3591673   5.9091673  51.6736493  13.3671673   5.6361673  50.7846493
  13.1101673   5.9541673  51.4536493   7.7271673   6.6961673  50.1236493
   7.4721673   5.9771673  50.5456493   8.5481673   6.8121673  50.3936493
   7.8111673   6.6071673  50.2256493   5.6611673   7.8861673  53.3106493
   5.9841673   8.5721673  52.8786493   4.9571673   8.2091673  53.7126493
   5.6041673   8.0351673  53.3056493   8.7451673  16.2601673  44.2396493
   8.2941673  16.9031673  44.6186493   9.4531673  16.1811673  44.7446493
   8.7831673  16.3431673  44.3706493   5.4461673  11.3501673  47.1696493
   4.7521673  11.7521673  47.5126493   6.1231673  11.7831673  47.5086493
   5.4431673  11.4731673  47.2706493  10.8231673  13.9431673  53.7496493
  11.5991673  13.5531673  53.8326493  10.3541673  13.6071673  54.4046493
  10.8681673  13.8361673  53.8586493  11.8481673   5.9761673  39.2316493
  11.9511673   5.9181673  38.3676493  12.5891673   5.6441673  39.5496493
  11.9731673   5.9191673  39.1506493   5.7681673  12.9411673  40.3386493
   5.5631673  13.7741673  40.1796493   4.9931673  12.5591673  40.4606493
   5.6231673  13.0081673  40.3336493  10.9501673   6.1221673  48.5876493
  10.9481673   5.2591673  48.7116493  11.0171673   6.4461673  49.3946493
  10.9601673   6.0421673  48.7246493   9.7251673   6.9081673  44.5146493
  10.3911673   7.4491673  44.6746493   9.3801673   7.2191673  43.7756493
   9.7721673   7.0341673  44.4296493  10.0381673  14.9741673  40.3216493
   9.8641673  14.3201673  40.8716493  10.7511673  14.7031673  39.8986493
  10.1181673  14.8371673  40.3406493   7.7131673  12.4271673  48.0126493
   7.9191673  12.7281673  48.8046493   7.6521673  13.1491673  47.5276493
   7.7341673  12.5781673  48.0576493   7.2471673  16.6411673  52.2586493
   6.4941673  16.6231673  51.8176493   7.4151673  17.4931673  52.3426493
   7.1611673  16.7641673  52.2056493   2.4841673   5.9081673  51.4286493
   2.1621673   5.3321673  50.8586493   2.1251673   6.6631673  51.1826493
   2.3841673   5.9341673  51.3086493  12.5251673  11.0661673  47.4706493
  12.4931673  10.2041673  47.3356493  11.8321673  11.3681673  47.0366493
  12.4181673  10.9831673  47.3866493  10.6301673  14.3261673  46.2676493
  11.1571673  14.2431673  45.5766493  10.2391673  13.5481673  46.3216493
  10.6501673  14.1991673  46.1736493   6.5031673   5.5781673  42.9686493
   7.0541673   4.9711673  43.2686493   6.0781673   5.8411673  43.6836493
   6.5221673   5.5271673  43.1176493   8.4731673   7.4091673  39.5306493
   8.5411673   6.5591673  39.7116493   7.6501673   7.4951673  39.2526493
   8.3611673   7.2961673  39.5166493   2.3921673   8.3001673  38.4686493
   2.4921673   8.4391673  37.6136493   3.2101673   8.2401673  38.7646493
   2.5271673   8.3111673  38.3856493  11.5521673  16.3641673  35.9486493
  12.1891673  16.2301673  36.5296493  11.2111673  15.5701673  35.8316493
  11.5961673  16.2271673  36.0166493  11.7471673   8.7821673  52.6816493
  12.3811673   8.6121673  53.2556493  12.1641673   9.1851673  52.0296493
  11.9021673   8.8171673  52.6706493   7.6271673  12.6291673  38.2706493
   7.3761673  12.5011673  39.0966493   7.3101673  11.9341673  37.8496493
   7.5431673  12.5081673  38.3306493  12.3721673   3.3461673  53.4196493
  12.1761673   3.9901673  53.9746493  11.6501673   2.8561673  53.4116493
  12.2371673   3.3691673  53.5006493  12.2711673   4.2871673  46.3906493
  11.4381673   4.5371673  46.3186493  12.2151673   3.4471673  46.6196493
  12.1401673   4.2001673  46.4136493   9.1581673   8.8931673  54.0366493
  10.0291673   8.8571673  54.0006493   8.9391673   9.3131673  53.3046493
   9.2551673   8.9491673  53.9236493   4.5131673  10.8371673  37.7006493
   5.2301673  10.4901673  37.3446493   4.4791673  11.6371673  37.3526493
   4.6141673  10.9041673  37.5966493   5.7311673   6.3941673  26.6104083
   5.2071673   6.9901673  26.9734083   6.1281673   6.0261673  27.2944083
   5.7121673   6.4281673  26.7654083  11.8751673  13.8351673  19.5814083
  12.5761673  13.3161673  19.5774083  11.2881673  13.3901673  19.1124083
  11.8921673  13.6921673  19.5114083   8.4021673   7.4611673  23.2864083
   8.4821673   7.4651673  22.4174083   7.8181673   6.8291673  23.4354083
   8.3271673   7.3681673  23.1804083   2.0961673  13.9861673  30.6514083
   2.2341673  14.7461673  30.2444083   2.8871673  13.6211673  30.6784083
   2.2331673  14.0451673  30.5954083   3.1911673  11.8711673  25.1564083
   3.5391673  11.0721673  25.1864083   3.8561673  12.3751673  24.9014083
   3.3411673  11.8271673  25.1234083   3.2481673  11.3201673  21.3674083
   3.5791673  10.6761673  21.8534083   3.4881673  11.1091673  20.5564083
   3.3321673  11.1941673  21.3194083   5.2161673   5.4511673  32.7064083
   4.3681673   5.3521673  32.5284083   5.2451673   6.1961673  33.1604083
   5.0951673   5.5471673  32.7474083   7.2361673   3.0521673  16.3344083
   6.7861673   3.7331673  16.6414083   7.3501673   2.5481673  17.0374083
   7.1871673   3.0781673  16.4834083   7.3351673  15.3931673  18.4384083
   8.0621673  15.8651673  18.5404083   7.5641673  14.5991673  18.7184083
   7.4771673  15.3461673  18.4954083   5.5031673  15.7851673  20.4284083
   5.7171673  16.3121673  21.0904083   6.2701673  15.6111673  20.0494083
   5.6481673  15.8371673  20.4704083   1.7771673   2.5011673  35.3254083
   1.8941673   2.0471673  34.5894083   2.0651673   3.2991673  35.1224083
   1.8371673   2.5521673  35.1864083  12.6301673   3.0251673  22.6294083
  12.2841673   3.7031673  23.0554083  11.9941673   2.4271673  22.6454083
  12.4851673   3.0371673  22.6944083   7.9421673  15.7951673  28.7334083
   8.6861673  16.2511673  28.7234083   7.8211673  15.5811673  27.8964083
   8.0341673  15.8311673  28.6084083   4.7531673   4.6671673  22.2504083
   5.0401673   4.4351673  21.4604083   5.4851673   4.7461673  22.7194083
   4.9031673   4.6441673  22.2034083   5.4751673   5.0061673  17.3714083
   5.7561673   5.7941673  17.6204083   4.6991673   5.1711673  17.0084083
   5.4021673   5.1471673  17.3544083   9.5161673  16.9801673  18.8384083
  10.1811673  16.8321673  18.2934083   9.8761673  16.8971673  19.6284083
   9.6681673  16.9461673  18.8744083   7.1961673  12.9801673  32.4374083
   7.1621673  13.3621673  33.2214083   8.0501673  12.9381673  32.2664083
   7.3171673  13.0301673  32.5284083   4.3341673  13.1771673  17.1874083
   4.1531673  13.7221673  17.8444083   5.1001673  13.4671673  16.8864083
   4.4201673  13.3011673  17.2404083   5.0991673   3.4491673  19.5554083
   4.5911673   2.7871673  19.3014083   5.1511673   3.9531673  18.8454083
   5.0321673   3.4261673  19.4134083   5.6481673  16.1441673  29.9354083
   6.4161673  16.0641673  29.5294083   5.0651673  16.0231673  29.2974083
   5.6751673  16.1141673  29.7814083  11.9251673  16.7471673  22.8364083
  11.4701673  17.4641673  23.0374083  11.3111673  16.1761673  22.5944083
  11.7671673  16.7691673  22.8304083   3.6971673   2.7571673  23.9684083
   3.7711673   3.3251673  23.3104083   3.8181673   3.2491673  24.6784083
   3.7251673   2.9141673  23.9764083   8.9221673  12.5921673  22.3804083
   9.6231673  12.1101673  22.5694083   8.2621673  12.0231673  22.4254083
   8.9281673  12.4371673  22.4144083   7.4891673   2.9271673  29.8564083
   7.3941673   3.2461673  30.6624083   6.8961673   2.2881673  29.8184083
   7.3871673   2.8791673  29.9704083   2.0111673   8.9511673  28.9314083
   2.0641673   9.7981673  29.1334083   1.7261673   8.5811673  29.6684083
   1.9771673   9.0211673  29.0694083   8.1881673   9.6461673  28.0614083
   7.6741673   9.2341673  28.6324083   8.0621673  10.4901673  28.2424083
   8.0941673   9.7101673  28.1724083  11.2091673   3.1071673  31.0004083
  11.9811673   2.8821673  31.3374083  10.7341673   3.3241673  31.7004083
  11.2531673   3.1061673  31.1534083  11.4411673  10.0851673  18.1884083
  11.5601673   9.7981673  19.0034083  12.2481673  10.1061673  17.8584083
  11.5771673  10.0461673  18.2604083  13.6751673  14.5941673  32.4424083
  12.9931673  14.9041673  31.9954083  13.3061673  14.1361673  33.0874083
  13.5191673  14.5721673  32.4714083   9.3361673   6.6221673  17.7734083
   9.1161673   7.3531673  17.3514083   8.8881673   6.6731673  18.5204083
   9.2371673   6.7371673  17.8214083   2.7481673   5.1771673  35.1704083
   2.2641673   5.7541673  35.6124083   2.7201673   5.4721673  34.3494083
   2.6721673   5.3061673  35.1144083  13.8461673   5.8611673  29.7824083
  14.0611673   5.0611673  29.5064083  12.9961673   5.9211673  29.5934083
  13.7521673   5.7521673  29.7134083   5.4681673  13.5271673  24.0814083
   4.9451673  14.1611673  23.7884083   5.7781673  13.1631673  23.3524083
   5.4361673  13.5671673  23.9304083   7.9791673   3.3291673  24.5784083
   8.3231673   3.4811673  25.3654083   7.5261673   2.5911673  24.6914083
   7.9631673   3.2421673  24.7114083   2.4551673   2.5491673  19.0354083
   2.4531673   2.4321673  18.1704083   2.2741673   3.3971673  19.1274083
   2.4281673   2.6571673  18.9214083  11.5091673  14.9761673  30.5324083
  10.8381673  15.4901673  30.7504083  11.5721673  15.0761673  29.6684083
  11.4191673  15.0671673  30.4374083   9.3001673   4.6611673  27.1324083
   8.6381673   4.9891673  27.5954083   9.4871673   5.2951673  26.5634083
   9.2301673   4.8031673  27.1164083   3.5051673  15.7251673  28.1284083
   3.2281673  15.0841673  27.6054083   3.2971673  16.4511673  27.6904083
   3.4341673  15.7381673  27.9864083   7.4931673   2.6301673  20.6434083
   7.9831673   3.3471673  20.5664083   6.7031673   2.8911673  20.3804083
   7.4491673   2.7741673  20.5934083   8.8071673  10.5081673  32.5534083
   9.2911673  11.2261673  32.6514083   9.2011673  10.0811673  31.9024083
   8.9371673  10.5511673  32.4714083   3.1031673  13.3531673  33.7304083
   3.4571673  13.1751673  34.5074083   2.6671673  12.6241673  33.5314083
   3.0911673  13.2191673  33.8164083   4.0751673   4.1001673  26.3684083
   4.5551673   4.7991673  26.5764083   4.4481673   3.4531673  26.8194083
   4.2011673   4.1081673  26.4654083   6.2641673   7.2691673  18.6424083
   6.2561673   7.9911673  18.1524083   5.6251673   7.4041673  19.2194083
   6.1691673   7.3961673  18.6554083  11.2361673  11.1391673  22.6234083
  11.5921673  10.7891673  23.3384083  11.2281673  10.4781673  22.0534083
  11.2881673  10.9891673  22.6444083   7.2811673  14.2051673  26.4674083
   6.6781673  13.9091673  25.9104083   7.8261673  14.6571673  25.9584083
   7.2721673  14.2281673  26.3094083   7.2941673  11.0561673  25.8674083
   6.4971673  11.2801673  26.1414083   7.5521673  10.4621673  26.4524083
   7.2141673  11.0011673  25.9944083   3.4781673  15.3841673  18.7174083
   4.1001673  15.5471673  19.3074083   3.5141673  16.0751673  18.1854083
   3.5751673  15.5101673  18.7264083  10.5541673   9.0541673  30.7134083
  10.6091673   9.1791673  29.8514083  11.3071673   9.3741673  31.0154083
  10.6731673   9.1191673  30.6304083   6.7451673  14.4031673  34.9904083
   6.9091673  14.6861673  35.7994083   7.0081673  15.0641673  34.4854083
   6.8081673  14.5431673  35.0354083   6.2851673   8.8601673  30.3134083
   6.1301673   9.4701673  30.9174083   6.8191673   8.3021673  30.7194083
   6.3411673   8.8681673  30.4624083   4.6691673   7.2601673  20.9714083
   4.7281673   7.9101673  21.5504083   4.4801673   6.5641673  21.4624083
   4.6501673   7.2531673  21.1294083   9.8951673  11.5891673  26.8404083
   9.4161673  11.8871673  26.1744083   9.5391673  10.8131673  27.0184083
   9.7721673  11.5181673  26.7684083   3.8921673   9.3071673  25.4024083
   3.0451673   9.1131673  25.4834083   4.2161673   9.1421673  26.1954083
   3.8141673   9.2541673  25.5314083  13.5871673  15.7551673  18.7804083
  14.2811673  15.2881673  18.5324083  13.0481673  15.1571673  19.1174083
  13.6101673  15.5971673  18.7934083  10.8261673   8.5311673  27.9594083
  10.8191673   7.7551673  28.3574083   9.9851673   8.7651673  27.9524083
  10.7011673   8.4511673  28.0174083  12.0821673   8.6021673  25.3964083
  11.7961673   9.0031673  26.1164083  12.9421673   8.5401673  25.5234083
  12.1671673   8.6521673  25.5214083   9.7441673   2.5261673  33.9364083
   9.2191673   2.9851673  34.4604083   9.3831673   1.7311673  33.9304083
   9.6131673   2.4761673  34.0124083  13.2131673  14.2351673  25.9254083
  13.5031673  14.4921673  25.1444083  13.9081673  14.3311673  26.4444083
  13.3591673  14.2871673  25.8864083   8.2361673   6.0951673  34.0124083
   8.3091673   6.1991673  34.8754083   7.6021673   6.6531673  33.7914083
   8.1531673   6.1931673  34.1074083  10.5041673   6.4141673  32.3774083
  10.8231673   7.2001673  32.5804083  10.1341673   6.1441673  33.1204083
  10.4971673   6.4901673  32.5174083   9.8181673  12.8381673  17.9074083
  10.1521673  12.0321673  17.9424083   9.0631673  12.7661673  18.3374083
   9.7561673  12.7081673  17.9764083  10.3001673   4.6721673  23.5664083
   9.5551673   4.3491673  23.8844083  10.3021673   5.4981673  23.8464083
  10.1901673   4.7461673  23.6544083  13.2021673   6.9561673  35.1124083
  13.1501673   6.6151673  34.3114083  13.9391673   7.4231673  35.0904083
  13.3031673   6.9751673  34.9904083  12.7401673  10.6321673  31.3184083
  13.3681673  10.0831673  31.0624083  12.6791673  11.1971673  30.6564083
  12.8241673  10.6351673  31.1824083   7.1921673  10.7131673  17.3104083
   7.8761673  10.1991673  17.1414083   6.7751673  10.7591673  16.5454083
   7.2311673  10.6441673  17.1724083   4.3901673   8.2861673  28.1054083
   4.8661673   8.6601673  28.7334083   3.5671673   8.4201673  28.3644083
   4.3391673   8.3611673  28.2364083   3.6541673  15.6791673  23.3334083
   4.2001673  16.3581673  23.3874083   3.3041673  15.7611673  22.5384083
   3.6831673  15.7921673  23.2234083   6.1461673  10.5411673  33.7114083
   6.9031673  10.8271673  33.3854083   5.5991673  10.5931673  33.0334083
   6.1771673  10.5911673  33.5624083  10.0551673  13.0911673  32.2154083
  10.4011673  13.3611673  32.9694083  10.3491673  13.6731673  31.6354083
  10.1501673  13.2171673  32.2414083  11.9181673   5.2371673  17.5544083
  12.2961673   5.9141673  17.1544083  11.0761673   5.4611673  17.5854083
  11.8491673   5.3701673  17.4994083   3.4311673   8.6831673  16.6374083
   2.6261673   8.5061673  16.3524083   3.3981673   9.5341673  16.8294083
   3.3071673   8.7821673  16.6244083   7.3771673   3.8521673  32.3794083
   6.7291673   4.3221673  32.7274083   7.9421673   3.7631673  33.0384083
   7.3651673   3.9081673  32.5284083   7.0651673   5.3891673  28.6774083
   7.3671673   5.8091673  29.3804083   7.1011673   4.5491673  28.9094083
   7.1151673   5.3271673  28.8154083   4.4901673  15.5561673  32.6024083
   4.9681673  14.9561673  32.1864083   4.1391673  15.1131673  33.2674083
   4.5091673  15.4021673  32.6394083   9.6131673   4.8361673  20.9294083
   9.8201673   4.6351673  21.7534083  10.3691673   5.1041673  20.5874083
   9.7551673   4.8461673  21.0004083  11.0781673   8.8631673  20.7834083
  11.5541673   8.1341673  20.7354083  10.2571673   8.5771673  20.7074083
  11.0271673   8.7131673  20.7644083   4.5491673  10.7751673  31.6224083
   3.7541673  10.7111673  31.9734083   4.6201673  11.6221673  31.4274083
   4.4421673  10.8901673  31.6454083   7.2941673  10.0301673  23.1384083
   7.3701673  10.3711673  23.9374083   7.4631673   9.1831673  23.2594083
   7.3301673   9.9551673  23.2744083   4.8161673   9.3041673  22.7034083
   4.5181673   8.9891673  23.4604083   5.5111673   9.7771673  22.9384083
   4.8751673   9.3271673  22.8504083   5.0381673  13.4221673  30.7304083
   5.7251673  13.3081673  31.2554083   5.1721673  14.2131673  30.3864083
   5.1591673  13.5221673  30.7574083  13.2141673   6.0311673  32.5414083
  12.3591673   5.9091673  32.6674083  13.3671673   5.6361673  31.7784083
  13.1101673   5.9541673  32.4474083   7.7271673   6.6961673  31.1174083
   7.4721673   5.9771673  31.5394083   8.5481673   6.8121673  31.3874083
   7.8111673   6.6071673  31.2194083   5.6611673   7.8861673  34.3044083
   5.9841673   8.5721673  33.8724083   4.9571673   8.2091673  34.7064083
   5.6041673   8.0351673  34.2994083   8.7451673  16.2601673  25.2334083
   8.2941673  16.9031673  25.6124083   9.4531673  16.1811673  25.7384083
   8.7831673  16.3431673  25.3644083   5.4461673  11.3501673  28.1634083
   4.7521673  11.7521673  28.5064083   6.1231673  11.7831673  28.5024083
   5.4431673  11.4731673  28.2644083  10.8231673  13.9431673  34.7434083
  11.5991673  13.5531673  34.8264083  10.3541673  13.6071673  35.3984083
  10.8681673  13.8361673  34.8524083  11.8481673   5.9761673  20.2254083
  11.9511673   5.9181673  19.3614083  12.5891673   5.6441673  20.5434083
  11.9731673   5.9191673  20.1444083   5.7681673  12.9411673  21.3324083
   5.5631673  13.7741673  21.1734083   4.9931673  12.5591673  21.4544083
   5.6231673  13.0081673  21.3274083  10.9501673   6.1221673  29.5814083
  10.9481673   5.2591673  29.7054083  11.0171673   6.4461673  30.3884083
  10.9601673   6.0421673  29.7184083   9.7251673   6.9081673  25.5084083
  10.3911673   7.4491673  25.6684083   9.3801673   7.2191673  24.7694083
   9.7721673   7.0341673  25.4234083  10.0381673  14.9741673  21.3154083
   9.8641673  14.3201673  21.8654083  10.7511673  14.7031673  20.8924083
  10.1181673  14.8371673  21.3344083   7.7131673  12.4271673  29.0064083
   7.9191673  12.7281673  29.7984083   7.6521673  13.1491673  28.5214083
   7.7341673  12.5781673  29.0514083   7.2471673  16.6411673  33.2524083
   6.4941673  16.6231673  32.8114083   7.4151673  17.4931673  33.3364083
   7.1611673  16.7641673  33.1994083   2.4841673   5.9081673  32.4224083
   2.1621673   5.3321673  31.8524083   2.1251673   6.6631673  32.1764083
   2.3841673   5.9341673  32.3024083  12.5251673  11.0661673  28.4644083
  12.4931673  10.2041673  28.3294083  11.8321673  11.3681673  28.0304083
  12.4181673  10.9831673  28.3804083  10.6301673  14.3261673  27.2614083
  11.1571673  14.2431673  26.5704083  10.2391673  13.5481673  27.3154083
  10.6501673  14.1991673  27.1674083   6.5031673   5.5781673  23.9624083
   7.0541673   4.9711673  24.2624083   6.0781673   5.8411673  24.6774083
   6.5221673   5.5271673  24.1114083   8.4731673   7.4091673  20.5244083
   8.5411673   6.5591673  20.7054083   7.6501673   7.4951673  20.2464083
   8.3611673   7.2961673  20.5104083   2.3921673   8.3001673  19.4624083
   2.4921673   8.4391673  18.6074083   3.2101673   8.2401673  19.7584083
   2.5271673   8.3111673  19.3794083  11.5521673  16.3641673  16.9424083
  12.1891673  16.2301673  17.5234083  11.2111673  15.5701673  16.8254083
  11.5961673  16.2271673  17.0104083  11.7471673   8.7821673  33.6754083
  12.3811673   8.6121673  34.2494083  12.1641673   9.1851673  33.0234083
  11.9021673   8.8171673  33.6644083   7.6271673  12.6291673  19.2644083
   7.3761673  12.5011673  20.0904083   7.3101673  11.9341673  18.8434083
   7.5431673  12.5081673  19.3244083  12.3721673   3.3461673  34.4134083
  12.1761673   3.9901673  34.9684083  11.6501673   2.8561673  34.4054083
  12.2371673   3.3691673  34.4944083  12.2711673   4.2871673  27.3844083
  11.4381673   4.5371673  27.3124083  12.2151673   3.4471673  27.6134083
  12.1401673   4.2001673  27.4074083   9.1581673   8.8931673  35.0304083
  10.0291673   8.8571673  34.9944083   8.9391673   9.3131673  34.2984083
   9.2551673   8.9491673  34.9174083   4.5131673  10.8371673  18.6944083
   5.2301673  10.4901673  18.3384083   4.4791673  11.6371673  18.3464083
   4.6141673  10.9041673  18.5904083   5.7311673   6.3941673   7.6041673
   5.2071673   6.9901673   7.9671673   6.1281673   6.0261673   8.2881673
   5.7121673   6.4281673   7.7591673   8.4021673   7.4611673   4.2801673
   8.4821673   7.4651673   3.4111673   7.8181673   6.8291673   4.4291673
   8.3271673   7.3681673   4.1741673   2.0961673  13.9861673  11.6451673
   2.2341673  14.7461673  11.2381673   2.8871673  13.6211673  11.6721673
   2.2331673  14.0451673  11.5891673   3.1911673  11.8711673   6.1501673
   3.5391673  11.0721673   6.1801673   3.8561673  12.3751673   5.8951673
   3.3411673  11.8271673   6.1171673   3.2481673  11.3201673   2.3611673
   3.5791673  10.6761673   2.8471673   3.4881673  11.1091673   1.5501673
   3.3321673  11.1941673   2.3131673   5.2161673   5.4511673  13.7001673
   4.3681673   5.3521673  13.5221673   5.2451673   6.1961673  14.1541673
   5.0951673   5.5471673  13.7411673   1.7771673   2.5011673  16.3191673
   1.8941673   2.0471673  15.5831673   2.0651673   3.2991673  16.1161673
   1.8371673   2.5521673  16.1801673  12.6301673   3.0251673   3.6231673
  12.2841673   3.7031673   4.0491673  11.9941673   2.4271673   3.6391673
  12.4851673   3.0371673   3.6881673   7.9421673  15.7951673   9.7271673
   8.6861673  16.2511673   9.7171673   7.8211673  15.5811673   8.8901673
   8.0341673  15.8311673   9.6021673   4.7531673   4.6671673   3.2441673
   5.0401673   4.4351673   2.4541673   5.4851673   4.7461673   3.7131673
   4.9031673   4.6441673   3.1971673   7.1961673  12.9801673  13.4311673
   7.1621673  13.3621673  14.2151673   8.0501673  12.9381673  13.2601673
   7.3171673  13.0301673  13.5221673   5.6481673  16.1441673  10.9291673
   6.4161673  16.0641673  10.5231673   5.0651673  16.0231673  10.2911673
   5.6751673  16.1141673  10.7751673  11.9251673  16.7471673   3.8301673
  11.4701673  17.4641673   4.0311673  11.3111673  16.1761673   3.5881673
  11.7671673  16.7691673   3.8241673   3.6971673   2.7571673   4.9621673
   3.7711673   3.3251673   4.3041673   3.8181673   3.2491673   5.6721673
   3.7251673   2.9141673   4.9701673   8.9221673  12.5921673   3.3741673
   9.6231673  12.1101673   3.5631673   8.2621673  12.0231673   3.4191673
   8.9281673  12.4371673   3.4081673   7.4891673   2.9271673  10.8501673
   7.3941673   3.2461673  11.6561673   6.8961673   2.2881673  10.8121673
   7.3871673   2.8791673  10.9641673   2.0111673   8.9511673   9.9251673
   2.0641673   9.7981673  10.1271673   1.7261673   8.5811673  10.6621673
   1.9771673   9.0211673  10.0631673   8.1881673   9.6461673   9.0551673
   7.6741673   9.2341673   9.6261673   8.0621673  10.4901673   9.2361673
   8.0941673   9.7101673   9.1661673  11.2091673   3.1071673  11.9941673
  11.9811673   2.8821673  12.3311673  10.7341673   3.3241673  12.6941673
  11.2531673   3.1061673  12.1471673  13.6751673  14.5941673  13.4361673
  12.9931673  14.9041673  12.9891673  13.3061673  14.1361673  14.0811673
  13.5191673  14.5721673  13.4651673   2.7481673   5.1771673  16.1641673
   2.2641673   5.7541673  16.6061673   2.7201673   5.4721673  15.3431673
   2.6721673   5.3061673  16.1081673  13.8461673   5.8611673  10.7761673
  14.0611673   5.0611673  10.5001673  12.9961673   5.9211673  10.5871673
  13.7521673   5.7521673  10.7071673   5.4681673  13.5271673   5.0751673
   4.9451673  14.1611673   4.7821673   5.7781673  13.1631673   4.3461673
   5.4361673  13.5671673   4.9241673   7.9791673   3.3291673   5.5721673
   8.3231673   3.4811673   6.3591673   7.5261673   2.5911673   5.6851673
   7.9631673   3.2421673   5.7051673  11.5091673  14.9761673  11.5261673
  10.8381673  15.4901673  11.7441673  11.5721673  15.0761673  10.6621673
  11.4191673  15.0671673  11.4311673   9.3001673   4.6611673   8.1261673
   8.6381673   4.9891673   8.5891673   9.4871673   5.2951673   7.5571673
   9.2301673   4.8031673   8.1101673   3.5051673  15.7251673   9.1221673
   3.2281673  15.0841673   8.5991673   3.2971673  16.4511673   8.6841673
   3.4341673  15.7381673   8.9801673   8.8071673  10.5081673  13.5471673
   9.2911673  11.2261673  13.6451673   9.2011673  10.0811673  12.8961673
   8.9371673  10.5511673  13.4651673   3.1031673  13.3531673  14.7241673
   3.4571673  13.1751673  15.5011673   2.6671673  12.6241673  14.5251673
   3.0911673  13.2191673  14.8101673   4.0751673   4.1001673   7.3621673
   4.5551673   4.7991673   7.5701673   4.4481673   3.4531673   7.8131673
   4.2011673   4.1081673   7.4591673  11.2361673  11.1391673   3.6171673
  11.5921673  10.7891673   4.3321673  11.2281673  10.4781673   3.0471673
  11.2881673  10.9891673   3.6381673   7.2811673  14.2051673   7.4611673
   6.6781673  13.9091673   6.9041673   7.8261673  14.6571673   6.9521673
   7.2721673  14.2281673   7.3031673   7.2941673  11.0561673   6.8611673
   6.4971673  11.2801673   7.1351673   7.5521673  10.4621673   7.4461673
   7.2141673  11.0011673   6.9881673  10.5541673   9.0541673  11.7071673
  10.6091673   9.1791673  10.8451673  11.3071673   9.3741673  12.0091673
  10.6731673   9.1191673  11.6241673   6.7451673  14.4031673  15.9841673
   6.9091673  14.6861673  16.7931673   7.0081673  15.0641673  15.4791673
   6.8081673  14.5431673  16.0291673   6.2851673   8.8601673  11.3071673
   6.1301673   9.4701673  11.9111673   6.8191673   8.3021673  11.7131673
   6.3411673   8.8681673  11.4561673   4.6691673   7.2601673   1.9651673
   4.7281673   7.9101673   2.5441673   4.4801673   6.5641673   2.4561673
   4.6501673   7.2531673   2.1231673   9.8951673  11.5891673   7.8341673
   9.4161673  11.8871673   7.1681673   9.5391673  10.8131673   8.0121673
   9.7721673  11.5181673   7.7621673   3.8921673   9.3071673   6.3961673
   3.0451673   9.1131673   6.4771673   4.2161673   9.1421673   7.1891673
   3.8141673   9.2541673   6.5251673  10.8261673   8.5311673   8.9531673
  10.8191673   7.7551673   9.3511673   9.9851673   8.7651673   8.9461673
  10.7011673   8.4511673   9.0111673  12.0821673   8.6021673   6.3901673
  11.7961673   9.0031673   7.1101673  12.9421673   8.5401673   6.5171673
  12.1671673   8.6521673   6.5151673   9.7441673   2.5261673  14.9301673
   9.2191673   2.9851673  15.4541673   9.3831673   1.7311673  14.9241673
   9.6131673   2.4761673  15.0061673  13.2131673  14.2351673   6.9191673
  13.5031673  14.4921673   6.1381673  13.9081673  14.3311673   7.4381673
  13.3591673  14.2871673   6.8801673   8.2361673   6.0951673  15.0061673
   8.3091673   6.1991673  15.8691673   7.6021673   6.6531673  14.7851673
   8.1531673   6.1931673  15.1011673  10.5041673   6.4141673  13.3711673
  10.8231673   7.2001673  13.5741673  10.1341673   6.1441673  14.1141673
  10.4971673   6.4901673  13.5111673  10.3001673   4.6721673   4.5601673
   9.5551673   4.3491673   4.8781673  10.3021673   5.4981673   4.8401673
  10.1901673   4.7461673   4.6481673  13.2021673   6.9561673  16.1061673
  13.1501673   6.6151673  15.3051673  13.9391673   7.4231673  16.0841673
  13.3031673   6.9751673  15.9841673  12.7401673  10.6321673  12.3121673
  13.3681673  10.0831673  12.0561673  12.6791673  11.1971673  11.6501673
  12.8241673  10.6351673  12.1761673   4.3901673   8.2861673   9.0991673
   4.8661673   8.6601673   9.7271673   3.5671673   8.4201673   9.3581673
   4.3391673   8.3611673   9.2301673   3.6541673  15.6791673   4.3271673
   4.2001673  16.3581673   4.3811673   3.3041673  15.7611673   3.5321673
   3.6831673  15.7921673   4.2171673   6.1461673  10.5411673  14.7051673
   6.9031673  10.8271673  14.3791673   5.5991673  10.5931673  14.0271673
   6.1771673  10.5911673  14.5561673  10.0551673  13.0911673  13.2091673
  10.4011673  13.3611673  13.9631673  10.3491673  13.6731673  12.6291673
  10.1501673  13.2171673  13.2351673   7.3771673   3.8521673  13.3731673
   6.7291673   4.3221673  13.7211673   7.9421673   3.7631673  14.0321673
   7.3651673   3.9081673  13.5221673   7.0651673   5.3891673   9.6711673
   7.3671673   5.8091673  10.3741673   7.1011673   4.5491673   9.9031673
   7.1151673   5.3271673   9.8091673   4.4901673  15.5561673  13.5961673
   4.9681673  14.9561673  13.1801673   4.1391673  15.1131673  14.2611673
   4.5091673  15.4021673  13.6331673   9.6131673   4.8361673   1.9231673
   9.8201673   4.6351673   2.7471673  10.3691673   5.1041673   1.5811673
   9.7551673   4.8461673   1.9941673  11.0781673   8.8631673   1.7771673
  11.5541673   8.1341673   1.7291673  10.2571673   8.5771673   1.7011673
  11.0271673   8.7131673   1.7581673   4.5491673  10.7751673  12.6161673
   3.7541673  10.7111673  12.9671673   4.6201673  11.6221673  12.4211673
   4.4421673  10.8901673  12.6391673   7.2941673  10.0301673   4.1321673
   7.3701673  10.3711673   4.9311673   7.4631673   9.1831673   4.2531673
   7.3301673   9.9551673   4.2681673   4.8161673   9.3041673   3.6971673
   4.5181673   8.9891673   4.4541673   5.5111673   9.7771673   3.9321673
   4.8751673   9.3271673   3.8441673   5.0381673  13.4221673  11.7241673
   5.7251673  13.3081673  12.2491673   5.1721673  14.2131673  11.3801673
   5.1591673  13.5221673  11.7511673  13.2141673   6.0311673  13.5351673
  12.3591673   5.9091673  13.6611673  13.3671673   5.6361673  12.7721673
  13.1101673   5.9541673  13.4411673   7.7271673   6.6961673  12.1111673
   7.4721673   5.9771673  12.5331673   8.5481673   6.8121673  12.3811673
   7.8111673   6.6071673  12.2131673   5.6611673   7.8861673  15.2981673
   5.9841673   8.5721673  14.8661673   4.9571673   8.2091673  15.7001673
   5.6041673   8.0351673  15.2931673   8.7451673  16.2601673   6.2271673
   8.2941673  16.9031673   6.6061673   9.4531673  16.1811673   6.7321673
   8.7831673  16.3431673   6.3581673   5.4461673  11.3501673   9.1571673
   4.7521673  11.7521673   9.5001673   6.1231673  11.7831673   9.4961673
   5.4431673  11.4731673   9.2581673  10.8231673  13.9431673  15.7371673
  11.5991673  13.5531673  15.8201673  10.3541673  13.6071673  16.3921673
  10.8681673  13.8361673  15.8461673   5.7681673  12.9411673   2.3261673
   5.5631673  13.7741673   2.1671673   4.9931673  12.5591673   2.4481673
   5.6231673  13.0081673   2.3211673  10.9501673   6.1221673  10.5751673
  10.9481673   5.2591673  10.6991673  11.0171673   6.4461673  11.3821673
  10.9601673   6.0421673  10.7121673   9.7251673   6.9081673   6.5021673
  10.3911673   7.4491673   6.6621673   9.3801673   7.2191673   5.7631673
   9.7721673   7.0341673   6.4171673  10.0381673  14.9741673   2.3091673
   9.8641673  14.3201673   2.8591673  10.7511673  14.7031673   1.8861673
  10.1181673  14.8371673   2.3281673   7.7131673  12.4271673  10.0001673
   7.9191673  12.7281673  10.7921673   7.6521673  13.1491673   9.5151673
   7.7341673  12.5781673  10.0451673   7.2471673  16.6411673  14.2461673
   6.4941673  16.6231673  13.8051673   7.4151673  17.4931673  14.3301673
   7.1611673  16.7641673  14.1931673   2.4841673   5.9081673  13.4161673
   2.1621673   5.3321673  12.8461673   2.1251673   6.6631673  13.1701673
   2.3841673   5.9341673  13.2961673  12.5251673  11.0661673   9.4581673
  12.4931673  10.2041673   9.3231673  11.8321673  11.3681673   9.0241673
  12.4181673  10.9831673   9.3741673  10.6301673  14.3261673   8.2551673
  11.1571673  14.2431673   7.5641673  10.2391673  13.5481673   8.3091673
  10.6501673  14.1991673   8.1611673   6.5031673   5.5781673   4.9561673
   7.0541673   4.9711673   5.2561673   6.0781673   5.8411673   5.6711673
   6.5221673   5.5271673   5.1051673  11.7471673   8.7821673  14.6691673
  12.3811673   8.6121673  15.2431673  12.1641673   9.1851673  14.0171673
  11.9021673   8.8171673  14.6581673  12.3721673   3.3461673  15.4071673
  12.1761673   3.9901673  15.9621673  11.6501673   2.8561673  15.3991673
  12.2371673   3.3691673  15.4881673  12.2711673   4.2871673   8.3781673
  11.4381673   4.5371673   8.3061673  12.2151673   3.4471673   8.6071673
  12.1401673   4.2001673   8.4011673   9.1581673   8.8931673  16.0241673
  10.0291673   8.8571673  15.9881673   8.9391673   9.3131673  15.2921673
   9.2551673   8.9491673  15.9111673
  64.6358665  71.5376585  89.8232985  90.0000000  90.0000000  90.0000000
